LAMMPS (2 Aug 2019)
# lammps code to simulate tension test on RVE of nanocomposite with crack
# crack needs to be initiated first
# system is already equilibrated
# delete some atoms from a region to intiate a crack
# 10 % functionalized cnt with -OH group

# load equilibrated structure

read_restart    restart.npt_equi
  restoring atom style charge from restart
  orthogonal box = (-0.668066 -0.564907 0.31923) to (49.4 49.5032 100.455)
  2 by 2 by 7 MPI processor grid
  pair style reax/c stores no restart info
  26845 atoms
  read_restart CPU = 0.0116575 secs

# ReaxFF potential to define interatomic interactions

pair_style	reax/c control_file lgvdw yes
pair_coeff	* * ffield.reax.lg C C H O H C C C O O C C
Reading potential file ffield.reax.lg with DATE: 2012-01-06

neighbor	4 bin
neigh_modify	every 10 delay 0 check no

thermo 100
thermo_style custom step atoms temp press pe ke etotal vol density lx ly lz      #output variables

compute pnc_temp all temp
compute pnc_pe all pe/atom
compute pnc_stress all stress/atom pnc_temp pair bond
compute pnc_str all reduce sum c_pnc_stress[3]

variable tmpz equal "lz"
variable L0z equal ${tmpz}
variable L0z equal 100.136221220056
variable tmpx equal "lx"
variable L0x equal ${tmpx}
variable L0x equal 50.068110610028
variable tmpy equal "ly"
variable L0y equal ${tmpy}
variable L0y equal 50.0681106100281

# define groups of atoms to delete

fix std all qeq/reax 1 0.0 10.0 1e-6 reax/c

region atoms_for_deletion block EDGE 16.5 EDGE EDGE 48.9436705 51.4436705              # NOTE: box size will change after equilibration
delete_atoms region atoms_for_deletion
Deleted 237 atoms, new total = 26608
reset_ids
Resetting atom IDs ...
Unused restart file global fix info:
  fix style: npt, fix ID: npt_equi
Neighbor list info ...
  update every 10 steps, delay 0 steps, check no
  max neighbors/atom: 2000, page size: 100000
  master list distance cutoff = 14
  ghost atom cutoff = 14
  binsize = 7, bins = 8 8 15
  2 neighbor lists, perpetual/occasional/extra = 2 0 0
  (1) pair reax/c, perpetual
      attributes: half, newton off, ghost
      pair build: half/bin/newtoff/ghost
      stencil: half/ghost/bin/3d/newtoff
      bin: standard
  (2) fix qeq/reax, perpetual, copy from (1)
      attributes: half, newton off, ghost
      pair build: copy
      stencil: none
      bin: none

reset_timestep 0
timestep 0.25
thermo_style custom step atoms temp press pe ke etotal vol density lx ly lz
fix 1 all npt temp 300.0 300.0 25.0 x 0.0 0.0 250.0 y 0.0 0.0 250.0 couple xy
fix 2 all deform 1 z erate 0.00001 units box
fix bd all reax/c/bonds 1000 bonds.reaxc
dump deform1 all custom 1000 dump.deform id type x y z

variable strainz equal "(lz-v_L0z)/v_L0z"
variable strainx equal "(lx-v_L0x)/v_L0x"
variable strainy equal "(ly-v_L0y)/v_L0y"
variable stressz equal "-pzz/10000"
variable p1 equal "v_stressz"
variable p2 equal "v_strainz"
variable p3 equal "v_strainx"
variable p4 equal "v_strainy"
fix 3 all print 100 "${p1} ${p2} ${p3} ${p4}" file pmma_pnc_funct_10_crack.txt screen no

run 600000
Per MPI rank memory allocation (min/avg/max) = 272.9 | 285.1 | 296.8 Mbytes
Step Atoms Temp Press PotEng KinEng TotEng Volume Density Lx Ly Lz 
       0    26608    299.01799    868.90779     -2917881     23715.24   -2894165.8    251023.05     1.188316    50.068111    50.068111    100.13622 
     100    26608    311.74621   -865.53917   -2919301.4     24724.72   -2894576.7    251206.68    1.1874474    50.080161    50.080161    100.16126 
     200    26608    308.16999    260.25942   -2919767.7    24441.089   -2895326.6    251252.23    1.1872321    50.078443    50.078443    100.18629 
     300    26608    307.29138   -470.96831   -2920514.9    24371.407   -2896143.5    251272.37     1.187137    50.074194    50.074194    100.21132 
     400    26608     303.3593    577.56495     -2920946    24059.551   -2896886.4    251353.92    1.1867518    50.076065    50.076065    100.23636 
     500    26608    303.78379   -2523.2437   -2921612.9    24093.217   -2897519.7    251530.67    1.1859179    50.087414    50.087414    100.26139 
     600    26608    299.94286   -1793.0483   -2921759.8    23788.592   -2897971.2    251856.25    1.1843848    50.113564    50.113564    100.28643 
     700    26608    298.71193   -196.25904   -2921830.7    23690.966   -2898139.7    252128.56    1.1831056    50.134392    50.134392    100.31146 
     800    26608    298.80554    107.21577   -2921844.3    23698.391   -2898145.9     252235.1    1.1826059    50.138727    50.138727    100.33649 
     900    26608    299.90403    -700.5529   -2921816.5    23785.512     -2898031    252111.41    1.1831861     50.12018     50.12018    100.36153 
    1000    26608    302.54379    1896.9743   -2922072.7    23994.873   -2898077.8    251917.38    1.1840974    50.094642    50.094642    100.38656 
    1100    26608    298.62986    2729.3223     -2922011    23684.457   -2898326.5    251747.08    1.1848984    50.071464    50.071464     100.4116 
    1200    26608    298.79304    922.84989   -2922198.7    23697.399   -2898501.3    251716.79     1.185041    50.062211    50.062211    100.43663 
    1300    26608    301.32224    2468.4856   -2922334.1    23897.992   -2898436.1    251899.59     1.184181    50.074145    50.074145    100.46166 
    1400    26608    300.47879    974.78305   -2922118.9    23831.097   -2898287.8    252070.07    1.1833801    50.084847    50.084847     100.4867 
    1500    26608    300.31178    516.42317   -2922112.2    23817.852   -2898294.3    251841.45    1.1844544    50.055894    50.055894    100.51173 
    1600    26608    301.02392   -262.82296   -2922248.5    23874.331   -2898374.2    251453.55    1.1862816    50.011103    50.011103    100.53677 
    1700    26608    300.13477   -1343.5175   -2922316.7    23803.812   -2898512.9    251456.04    1.1862698    50.005124    50.005124     100.5618 
    1800    26608    298.17541    1832.7133   -2922239.3    23648.415   -2898590.9    251421.03     1.186435    49.995421    49.995421    100.58683 
    1900    26608    299.17267   -611.66455   -2922309.7    23727.508   -2898582.2    251364.91    1.1866999    49.983622    49.983622    100.61187 
    2000    26608    301.81381   -1757.9184   -2922249.9    23936.978   -2898312.9    251285.21    1.1870763    49.969481    49.969481     100.6369 
    2100    26608    300.94268   -834.25736   -2922159.4    23867.888   -2898291.5       251277    1.1871151    49.962451    49.962451    100.66194 
    2200    26608    301.07714    303.23244     -2922475    23878.553   -2898596.5    251416.39    1.1864569    49.970093    49.970093    100.68697 
    2300    26608    299.99139    628.17973   -2922512.8    23792.441   -2898720.4    251656.24    1.1853261    49.987709    49.987709      100.712 
    2400    26608    299.62551    3838.2487   -2922431.6    23763.423   -2898668.2    251905.14    1.1841549    50.006208    50.006208    100.73704 
    2500    26608    302.99769     -1428.95   -2922569.4    24030.872   -2898538.5    252185.16    1.1828401    50.027779    50.027779    100.76207 
    2600    26608    301.45032   -1268.4853     -2922525    23908.149   -2898616.9    252037.81    1.1835316     50.00695     50.00695    100.78711 
    2700    26608     300.3124    2304.5648   -2922697.6      23817.9   -2898879.7     252098.3    1.1832476     50.00674     50.00674    100.81214 
    2800    26608    298.60943    1994.8641   -2922594.4    23682.838   -2898911.5    252172.31    1.1829004     50.00787     50.00787    100.83717 
    2900    26608    297.64539   -246.81887   -2922301.4    23606.379     -2898695    252175.84    1.1828838    50.002015    50.002015    100.86221 
    3000    26608    301.91418   -3127.1978   -2922513.5    23944.939   -2898568.6    252267.32    1.1824548    50.004878    50.004878    100.88724 
    3100    26608    300.67117    1624.2533   -2922404.8    23846.355   -2898558.4    252177.83    1.1828745    49.989806    49.989806    100.91228 
    3200    26608    301.91982    1326.6136   -2922625.3    23945.386     -2898680    251971.48    1.1838432    49.963152    49.963152    100.93731 
    3300    26608    297.91874   -1023.9927   -2922515.4    23628.058   -2898887.3    251743.39    1.1849158    49.934341    49.934341    100.96235 
    3400    26608    297.85357   -1727.8024   -2922495.7    23622.889   -2898872.8    251579.08    1.1856897    49.911855    49.911855    100.98738 
    3500    26608    300.70221   -1247.3681   -2922452.8    23848.817     -2898604     251687.2    1.1851803    49.916393    49.916393    101.01241 
    3600    26608    298.07652    674.73907     -2922243    23640.572   -2898602.5    251786.56    1.1847126    49.920059    49.920059    101.03745 
    3700    26608    298.23272   -2324.7494   -2922311.7     23652.96   -2898658.8    251798.46    1.1846566    49.915055    49.915055    101.06248 
    3800    26608    299.25087    1701.1409   -2922336.1     23733.71   -2898602.4    251746.09    1.1849031    49.903684    49.903684    101.08752 
    3900    26608    300.33674    26.529796   -2922352.5    23819.831   -2898532.7    251931.58    1.1840307    49.915885    49.915885    101.11255 
    4000    26608    300.98073   -1646.6946   -2922632.6    23870.906   -2898761.7    251983.63    1.1837861    49.914863    49.914863    101.13758 
    4100    26608    297.09649   -331.45138   -2922480.8    23562.846     -2898918    251929.96    1.1840383    49.903371    49.903371    101.16262 
    4200    26608    300.83237    164.19652   -2922624.1    23859.139     -2898765    251710.73    1.1850695    49.875482    49.875482    101.18765 
    4300    26608    300.27317   -173.66128   -2922451.4    23814.789   -2898636.6    251457.46    1.1862631    49.844219    49.844219    101.21269 
    4400    26608    296.34321   -117.58285   -2922142.2    23503.102   -2898639.1    251211.72    1.1874235    49.813697    49.813697    101.23772 
    4500    26608    298.14065   -411.77197   -2922230.4    23645.658   -2898584.8    250993.92    1.1884539    49.785943    49.785943    101.26275 
    4600    26608    304.56615    993.42782   -2922427.7    24155.267   -2898272.4    250994.25    1.1884524    49.779823    49.779823    101.28779 
    4700    26608    303.71353    1780.1498   -2922398.1    24087.646   -2898310.5    251129.84    1.1878107    49.787114    49.787114    101.31282 
    4800    26608    299.18098     1388.122   -2922298.1    23728.167   -2898569.9    251389.57    1.1865835    49.806701    49.806701    101.33786 
    4900    26608    298.88902   -965.24543   -2922292.9    23705.012   -2898587.9    251662.95    1.1852945    49.827621    49.827621    101.36289 
    5000    26608    300.48881   -1986.2186   -2922385.5    23831.892   -2898553.6    252106.58    1.1832088    49.865362    49.865362    101.38792 
    5100    26608    299.51909   -221.34343   -2922499.1    23754.983   -2898744.2    252510.56    1.1813158    49.899139    49.899139    101.41296 
    5200    26608    298.35405   -1692.7714   -2922588.8    23662.583   -2898926.2    252857.71     1.179694    49.927265    49.927265    101.43799 
    5300    26608    299.96675   -35.347785   -2922575.1    23790.487   -2898784.6    253008.41    1.1789913     49.93598     49.93598    101.46303 
    5400    26608    298.05524    1036.7429   -2922323.7    23638.885   -2898684.8     253118.3    1.1784795    49.940662    49.940662    101.48806 
    5500    26608    300.59555   -2073.2107   -2922493.2    23840.357   -2898652.9     253344.3    1.1774282    49.956792    49.956792    101.51309 
    5600    26608    302.41613    2102.3939   -2922593.9    23984.748   -2898609.2    253485.08    1.1767743    49.964509    49.964509    101.53813 
    5700    26608    302.05725    -681.6866   -2922523.7    23956.285   -2898567.4    253564.22     1.176407    49.966148    49.966148    101.56316 
    5800    26608    300.57682    996.29708   -2922405.8    23838.872   -2898566.9    253259.74    1.1778213    49.929987    49.929987     101.5882 
    5900    26608    298.80862     2105.697   -2922263.7    23698.635   -2898565.1    253082.39    1.1786467    49.906353    49.906353    101.61323 
    6000    26608    298.89037   -853.57848   -2922321.8    23705.119   -2898616.6    253087.67    1.1786221    49.900727    49.900727    101.63826 
    6100    26608    299.45539   -2917.1774   -2922551.2     23749.93   -2898801.3    253078.03     1.178667    49.893632    49.893632     101.6633 
    6200    26608    300.00582   -1781.9739   -2922770.4    23793.586   -2898976.8    253024.18    1.1789178    49.882183    49.882183    101.68833 
    6300    26608    299.99571   -1081.5062     -2922739    23792.784   -2898946.3    253085.36    1.1786328    49.882073    49.882073    101.71337 
    6400    26608    300.59038   -91.420844   -2922494.4    23839.948   -2898654.4    253201.02    1.1780944    49.887331    49.887331     101.7384 
    6500    26608    301.26133    -696.1796   -2922444.1    23893.161   -2898550.9    253377.13    1.1772756    49.898539    49.898539    101.76343 
    6600    26608    301.51701   -930.17397   -2922554.5    23913.439   -2898641.1     253415.4    1.1770978     49.89617     49.89617    101.78847 
    6700    26608    299.43716   -187.37682     -2922555    23748.485   -2898806.6    253183.19    1.1781774    49.867172    49.867172     101.8135 
    6800    26608    298.05759   -69.128118   -2922535.6     23639.07   -2898896.5    252893.69    1.1795261    49.832528    49.832528    101.83854 
    6900    26608    300.46386    61.813804   -2922623.3    23829.913   -2898793.3    252825.47    1.1798444    49.819684    49.819684    101.86357 
    7000    26608    301.62113   -939.95054   -2922401.5    23921.696   -2898479.8    252862.78    1.1796703    49.817238    49.817238    101.88861 
    7100    26608    299.25048   -1732.1286   -2922198.6    23733.679   -2898464.9    252636.81    1.1807255    49.788857    49.788857    101.91364 
    7200    26608    299.52798   -2059.7472   -2922442.8    23755.688   -2898687.1    252830.98    1.1798187     49.80187     49.80187    101.93867 
    7300    26608    300.06107    2486.2304   -2922615.1    23797.968   -2898817.1    252980.34    1.1791221    49.810463    49.810463    101.96371 
    7400    26608    298.02827   -2066.2876   -2922437.9    23636.745   -2898801.2    252668.07    1.1805794    49.773601    49.773601    101.98874 
    7500    26608    301.35711   -1257.3489   -2922465.5    23900.757   -2898564.8     252358.2     1.182029    49.736968    49.736968    102.01378 
    7600    26608    300.83942    1185.3259   -2922406.8    23859.699   -2898547.1    252420.55     1.181737    49.737009    49.737009    102.03881 
    7700    26608    301.75508    1628.5813   -2922669.3     23932.32     -2898737    252587.23    1.1809572    49.747325    49.747325    102.06384 
    7800    26608    298.06644   -819.39317     -2922431    23639.772   -2898791.2    252751.77    1.1801884    49.757424    49.757424    102.08888 
    7900    26608    300.67923   -965.13308   -2922535.7    23846.994   -2898688.7    253168.45     1.178246    49.792317    49.792317    102.11391 
    8000    26608    299.91921    481.96306   -2922511.4    23786.716   -2898724.7    253376.29    1.1772795    49.806646    49.806646    102.13895 
    8100    26608    295.77361    665.22378   -2922433.4    23457.927   -2898975.5    253488.02    1.1767606    49.811523    49.811523    102.16398 
    8200    26608    300.33139   -2856.9013   -2922762.3    23819.407   -2898942.9    253729.39    1.1756412    49.829127    49.829127    102.18901 
    8300    26608    299.92762    853.21133   -2922624.2    23787.384   -2898836.8    253730.26    1.1756371     49.82311     49.82311    102.21405 
    8400    26608    300.97457   -776.37783     -2922666    23870.417   -2898795.6    253789.93    1.1753607    49.822867    49.822867    102.23908 
    8500    26608    299.16826    1366.7117   -2922505.1    23727.159   -2898777.9    253757.22    1.1755122    49.813559    49.813559    102.26412 
    8600    26608    299.09981    74.908227   -2922425.1    23721.729   -2898703.4    253356.67    1.1773707    49.768137    49.768137    102.28915 
    8700    26608    301.32104   -799.30582   -2922483.5    23897.896   -2898585.6    253063.61    1.1787341    49.733259    49.733259    102.31418 
    8800    26608     300.8911    -1590.836   -2922381.3    23863.797   -2898517.5    253134.98    1.1784018    49.734189    49.734189    102.33922 
    8900    26608    298.89984   -518.22086   -2922435.3     23705.87   -2898729.5    253412.41    1.1771117    49.755349    49.755349    102.36425 
    9000    26608    299.88566     662.8415   -2922702.6    23784.055   -2898918.6    253513.32    1.1766431    49.759171    49.759171    102.38929 
    9100    26608    299.01456    822.35467   -2922673.9    23714.968     -2898959    253416.09    1.1770946    49.743547    49.743547    102.41432 
    9200    26608    300.96104   -1272.3447   -2922713.6    23869.345   -2898844.2    253022.95    1.1789236    49.698873    49.698873    102.43935 
    9300    26608    299.48384   -950.46139   -2922236.2    23752.187     -2898484    252840.66    1.1797735    49.674898    49.674898    102.46439 
    9400    26608    302.33602   -1121.6846   -2922492.7    23978.395   -2898514.3    253037.37    1.1788564    49.688148    49.688148    102.48942 
    9500    26608     300.3368   -2623.7183   -2922530.6    23819.836   -2898710.8    253302.75    1.1776213    49.708126    49.708126    102.51446 
    9600    26608    299.08502   -2513.5608   -2922552.7    23720.557   -2898832.2    253365.59    1.1773292    49.708223    49.708223    102.53949 
    9700    26608    298.44137   -735.03169   -2922458.7    23669.508   -2898789.2    253469.36    1.1768472    49.712333    49.712333    102.56452 
    9800    26608    300.73647   -24.666237     -2922356    23851.534   -2898504.5    253692.44    1.1758124    49.728136    49.728136    102.58956 
    9900    26608    303.43025    1797.6891   -2922529.6    24065.179   -2898464.4    254004.57    1.1743675    49.752648    49.752648    102.61459 
   10000    26608    301.40502    45.723498     -2922474    23904.557   -2898569.5    254162.75    1.1736366    49.762068    49.762068    102.63963 
   10100    26608     299.5817   -2160.7264   -2922459.5    23759.949   -2898699.5    254038.32    1.1742115    49.743819    49.743819    102.66466 
   10200    26608    300.05078    345.57017     -2922550    23797.151   -2898752.8    253713.89     1.175713    49.705985    49.705985    102.68969 
   10300    26608    298.78556    2301.3319   -2922709.2    23696.807   -2899012.4    253526.53    1.1765818    49.681574    49.681574    102.71473 
   10400    26608    297.59004     698.4032   -2922736.4    23601.989   -2899134.4    253435.18     1.177006     49.66657     49.66657    102.73976 
   10500    26608    299.94546   -1178.0217   -2922589.4    23788.798   -2898800.6    253161.19    1.1782798    49.633669    49.633669     102.7648 
   10600    26608    300.99462   -1513.6373   -2922555.6    23872.007   -2898683.6     252925.1    1.1793797    49.604478    49.604478    102.78983 
   10700    26608    300.36013   -16.616007   -2922629.2    23821.686   -2898807.5     252892.8    1.1795303    49.595272    49.595272    102.81487 
   10800    26608    298.29609    1194.5484   -2922551.2    23657.986   -2898893.2    253304.67    1.1776124      49.6296      49.6296     102.8399 
   10900    26608    299.45629   -1807.1583   -2922513.1    23750.002   -2898763.1    253486.78    1.1767664    49.641396    49.641396    102.86493 
   11000    26608    300.65455   -1407.6171   -2922386.2    23845.037   -2898541.2     253549.4    1.1764757    49.641487    49.641487    102.88997 
   11100    26608    302.30656   -679.41933   -2922500.4    23976.058   -2898524.4    253657.82    1.1759728     49.64606     49.64606      102.915 
   11200    26608    300.74149   -538.25034   -2922587.1    23851.932   -2898735.2    253575.52    1.1763545    49.631969    49.631969    102.94004 
   11300    26608     299.5675    -1477.856   -2922660.5    23758.822   -2898901.7    253543.85    1.1765015    49.622836    49.622836    102.96507 
   11400    26608    300.89311    842.42687   -2922727.8    23863.957   -2898863.8    253962.91    1.1745601    49.657792    49.657792     102.9901 
   11500    26608    300.00657  -0.50755599   -2922588.9    23793.645   -2898795.3    254159.21     1.173653    49.670942    49.670942    103.01514 
   11600    26608    301.85132   -2665.6653   -2922586.6    23939.953   -2898646.7       254009     1.174347     49.65023     49.65023    103.04017 
   11700    26608    300.36384   -3243.5267   -2922418.1     23821.98   -2898596.1    253836.53    1.1751449    49.627343    49.627343    103.06521 
   11800    26608    300.24645    1166.2067   -2922511.7     23812.67     -2898699    253791.32    1.1753543    49.616898    49.616898    103.09024 
   11900    26608    298.68648   -351.58134   -2922599.2    23688.948   -2898910.2    253838.23    1.1751371    49.615459    49.615459    103.11527 
   12000    26608    298.61215    824.50593   -2922648.9    23683.053   -2898965.8     253913.3    1.1747896    49.616773    49.616773    103.14031 
   12100    26608    299.00279    560.23173     -2922519    23714.035     -2898805    254058.56     1.174118    49.624941    49.624941    103.16534 
   12200    26608     301.8025   -698.80395     -2922428    23936.081   -2898491.9    254142.73    1.1737291     49.62714     49.62714    103.19038 
   12300    26608    302.17106   -1265.7686   -2922472.9    23965.312   -2898507.6    254225.16    1.1733485    49.629168    49.629168    103.21541 
   12400    26608    301.89833   -2669.5609   -2922566.7    23943.681     -2898623    254420.97    1.1724455    49.642257    49.642257    103.24044 
   12500    26608    299.79459    289.37515   -2922615.6    23776.833   -2898838.8    254404.48    1.1725215    49.634631    49.634631    103.26548 
   12600    26608     299.3716   -1621.6432   -2922663.5    23743.286   -2898920.2    254317.47    1.1729226    49.620129    49.620129    103.29051 
   12700    26608    297.91615   -99.613495   -2922524.5    23627.853   -2898896.7    254262.45    1.1731764    49.608749    49.608749    103.31555 
   12800    26608    300.83152    -3300.054   -2922624.6    23859.072   -2898765.6    254434.14    1.1723848    49.619484    49.619484    103.34058 
   12900    26608     300.4761    1695.7685   -2922585.6    23830.883   -2898754.8    254237.81    1.1732901    49.594329    49.594329    103.36561 
   13000    26608    300.19017   -1066.3607   -2922784.3    23808.206   -2898976.1     254023.1    1.1742819    49.567381    49.567381    103.39065 
   13100    26608    297.94812   -1924.9399   -2922743.5    23630.389   -2899113.1     253991.7     1.174427    49.558318    49.558318    103.41568 
   13200    26608    299.99482    -1635.279   -2922772.6    23792.713   -2898979.9     254257.6    1.1731988    49.578252    49.578252    103.44072 
   13300    26608    300.83192    20.592053   -2922582.8    23859.104   -2898723.7     254546.7    1.1718664    49.600429    49.600429    103.46575 
   13400    26608     299.2338   -294.83457   -2922384.3    23732.356     -2898652    254582.91    1.1716997    49.597956    49.597956    103.49078 
   13500    26608     302.6547    -3149.071   -2922716.7    24003.669   -2898713.1    254377.62    1.1726453     49.57196     49.57196    103.51582 
   13600    26608    300.68569   -1876.7216   -2922784.7    23847.506   -2898937.2    253966.83     1.174542    49.525929    49.525929    103.54085 
   13700    26608    299.31669     -3072.11   -2922762.3    23738.931   -2899023.4    253746.85    1.1755603    49.498491    49.498491    103.56589 
   13800    26608    299.60928   -629.29989   -2922758.5    23762.136   -2898996.4    253641.52    1.1760485    49.482237    49.482237    103.59092 
   13900    26608     299.5459   -998.61233   -2922650.2    23757.109   -2898893.1    253542.31    1.1765086    49.466582    49.466582    103.61595 
   14000    26608    302.25876    1154.7356     -2922668    23972.267   -2898695.8    253546.53     1.176489    49.461019    49.461019    103.64099 
   14100    26608    301.86135    -187.8992   -2922482.6    23940.748   -2898541.8    253943.38    1.1746505    49.493735    49.493735    103.66602 
   14200    26608    301.99656    -709.4938   -2922826.7    23951.472   -2898875.2    254154.08    1.1736767    49.508286    49.508286    103.69106 
   14300    26608    299.63292   -382.96299   -2922814.3    23764.011   -2899050.3    254226.08    1.1733443    49.509322    49.509322    103.71609 
   14400    26608    298.28164   -733.44111   -2922745.2     23656.84   -2899088.4     254195.1    1.1734873    49.500332    49.500332    103.74113 
   14500    26608    299.57129   -1317.9409   -2922758.4    23759.123   -2898999.3    254048.57    1.1741641    49.480093    49.480093    103.76616 
   14600    26608    300.27042   -597.93906   -2922676.4    23814.571   -2898861.9    253863.97    1.1750179    49.456147    49.456147    103.79119 
   14700    26608    300.73123    410.86168     -2922567    23851.118   -2898715.9    254037.34     1.174216    49.467067    49.467067    103.81623 
   14800    26608    301.14927    3151.8038   -2922466.5    23884.273   -2898582.2     254392.1    1.1725785    49.495627    49.495627    103.84126 
   14900    26608    300.67489   -1422.3385   -2922518.3     23846.65   -2898671.6    254578.82    1.1717185    49.507821    49.507821     103.8663 
   15000    26608    299.53316    785.18975   -2922732.9    23756.098   -2898976.8    254266.54    1.1731576    49.471486    49.471486    103.89133 
   15100    26608    297.27629    617.11748   -2922576.8    23577.105   -2898999.7    254106.04    1.1738986    49.449912    49.449912    103.91636 
   15200    26608    298.36003   -2010.5538   -2922438.6    23663.057   -2898775.6    254285.17    1.1730716    49.461382    49.461382     103.9414 
   15300    26608    299.85736    -172.6686   -2922448.2    23781.811   -2898666.4    254573.04    1.1717451    49.483412    49.483412    103.96643 
   15400    26608    300.12381   -1225.8859   -2922523.3    23802.943   -2898720.4    254673.08    1.1712848    49.487176    49.487176    103.99147 
   15500    26608    300.16543   -1254.5977     -2922558    23806.244   -2898751.7    254714.91    1.1710925    49.485284    49.485284     104.0165 
   15600    26608    299.35932   -1508.2148   -2922791.7    23742.312   -2899049.4    254800.11    1.1707009    49.487605    49.487605    104.04153 
   15700    26608    299.51978    437.66504   -2922893.4    23755.037   -2899138.4    254840.53    1.1705152    49.485577    49.485577    104.06657 
   15800    26608    299.92931    1051.5026   -2922774.9    23787.517   -2898987.4    254940.21    1.1700575    49.489301    49.489301     104.0916 
   15900    26608    300.92179    402.43251   -2922696.7    23866.232   -2898830.5    254917.97    1.1701596    49.481193    49.481193    104.11664 
   16000    26608    300.78724   -1196.1676   -2922601.4     23855.56   -2898745.8    255014.71    1.1697157    49.484633    49.484633    104.14167 
   16100    26608    299.66419   -1488.1164   -2922575.7    23766.491   -2898809.2    255113.66     1.169262    49.488284    49.488284     104.1667 
   16200    26608     295.6889   -2432.5696   -2922590.1    23451.209   -2899138.9     255283.1     1.168486    49.498768    49.498768    104.19174 
   16300    26608    298.13916   -4945.1755     -2922703     23645.54   -2899057.5    255396.97     1.167965    49.503859    49.503859    104.21677 
   16400    26608    297.96144   -1336.4556   -2922480.3    23631.445   -2898848.9    255348.21     1.168188     49.49319     49.49319    104.24181 
   16500    26608    300.40175   -2117.3114   -2922549.8    23824.987   -2898724.8     255509.9    1.1674488    49.502913    49.502913    104.26684 
   16600    26608    302.28932    2429.6167   -2922765.4    23974.691   -2898790.7    255630.17    1.1668995     49.50862     49.50862    104.29187 
   16700    26608    299.24861   -1044.5735   -2922680.5    23733.531     -2898947    255562.57    1.1672081    49.496133    49.496133    104.31691 
   16800    26608    298.51856   -2651.7471   -2922659.3     23675.63   -2898983.7     255485.6    1.1675598    49.482742    49.482742    104.34194 
   16900    26608     301.8686    798.28168   -2922838.6    23941.323   -2898897.3    255203.62    1.1688499    49.449495    49.449495    104.36698 
   17000    26608    301.16618    1111.3032   -2922806.2    23885.614   -2898920.5    255245.16    1.1686596     49.44759     49.44759    104.39201 
   17100    26608    300.54814    -3480.362   -2922794.7    23836.597   -2898958.1    255534.59    1.1673359    49.469686    49.469686    104.41704 
   17200    26608    302.36529    -1086.901   -2922932.8    23980.716   -2898952.1    255330.95     1.168267    49.444043    49.444043    104.44208 
   17300    26608    299.80047   -2046.9939   -2922808.1    23777.299   -2899030.8    254998.08     1.169792    49.405883    49.405883    104.46711 
   17400    26608    297.80326     919.7235   -2922959.7    23618.899   -2899340.8    254724.52    1.1710483    49.373459    49.373459    104.49215 
   17500    26608    297.54198    1432.2392   -2922879.6    23598.178   -2899281.4    254468.37    1.1722271    49.342717    49.342717    104.51718 
   17600    26608    300.02186   -1979.8303   -2922831.8    23794.857   -2899036.9     254220.7    1.1733691    49.312794    49.312794    104.54221 
   17700    26608    300.63352   -1304.9973   -2922812.8    23843.369   -2898969.4    254359.27    1.1727299    49.320326    49.320326    104.56725 
   17800    26608    297.29606   -1606.3526   -2922691.4    23578.673   -2899112.7    254602.92    1.1716076    49.338037    49.338037    104.59228 
   17900    26608    297.76422    1020.1985   -2922776.4    23615.803   -2899160.5    254802.19    1.1706913    49.351435    49.351435    104.61732 
   18000    26608    299.77071   -2627.8707   -2922808.6    23774.939   -2899033.6    255029.91     1.169646    49.367578    49.367578    104.64235 
   18100    26608    301.10814    1668.4639     -2922634    23881.011     -2898753     255009.8    1.1697383    49.359727    49.359727    104.66739 
   18200    26608    302.64243    83.194183   -2922682.9    24002.696   -2898680.2    255175.33    1.1689794     49.36984     49.36984    104.69242 
   18300    26608     301.4535    459.14958   -2922789.2    23908.401   -2898880.8    255286.81     1.168469     49.37472     49.37472    104.71745 
   18400    26608    297.51338   -649.97238   -2922623.5    23595.909   -2899027.6    255566.65    1.1671895    49.395871    49.395871    104.74249 
   18500    26608    299.60234    301.52679   -2922724.6    23761.585     -2898963     255842.8    1.1659297    49.416645    49.416645    104.76752 
   18600    26608    300.68742    1701.4035   -2922767.6    23847.644   -2898919.9    256099.34    1.1647617    49.435509    49.435509    104.79256 
   18700    26608    298.97891   -1704.0068   -2922738.3    23712.141   -2899026.2     256343.4    1.1636528    49.453153    49.453153    104.81759 
   18800    26608    298.80761   -3196.9061   -2923034.8    23698.555   -2899336.2     256437.7    1.1632249    49.456342    49.456342    104.84262 
   18900    26608    296.47243    1410.9326   -2922890.7    23513.351   -2899377.4    256232.35    1.1641571    49.430635    49.430635    104.86766 
   19000    26608    299.13783   -1052.1678     -2922794    23724.745   -2899069.3    256086.34    1.1648209    49.410652    49.410652    104.89269 
   19100    26608    301.27509   -2030.1815   -2922746.6    23894.252   -2898852.4    256012.95    1.1651548    49.397678    49.397678    104.91773 
   19200    26608    300.50593   -1655.3907   -2922630.1    23833.249   -2898796.9    256118.61    1.1646741    49.401977    49.401977    104.94276 
   19300    26608    301.90028    3455.5291   -2922814.9    23943.836   -2898871.1     256252.3    1.1640665    49.408976    49.408976    104.96779 
   19400    26608     297.6808   -481.20516   -2922707.3    23609.187   -2899098.1    256364.83    1.1635555    49.413931    49.413931    104.99283 
   19500    26608    301.65367    1207.6952   -2923021.5    23924.277   -2899097.2    256170.38    1.1644387      49.3893      49.3893    105.01786 
   19600    26608    299.79312   -2323.0223   -2922600.3    23776.716   -2898823.6    256047.79    1.1649962    49.371597    49.371597     105.0429 
   19700    26608    302.22525    935.31442   -2922581.2    23969.609   -2898611.6    255758.03    1.1663161    49.337774    49.337774    105.06793 
   19800    26608    300.58259   -2358.0374     -2922508    23839.329   -2898668.7     255884.4    1.1657401    49.344083    49.344083    105.09296 
   19900    26608    300.84413   -3143.3572   -2922686.8    23860.072   -2898826.7    256004.72    1.1651922    49.349806    49.349806      105.118 
   20000    26608    297.66999   -481.47064   -2922609.3     23608.33     -2899001    256198.19    1.1643123    49.362572    49.362572    105.14303 
   20100    26608    299.60501   -701.27006   -2922721.1    23761.797   -2898959.3    256332.16    1.1637038      49.3696      49.3696    105.16807 
   20200    26608    300.44897   -339.78677   -2922708.3    23828.732   -2898879.6    256367.18    1.1635449    49.367096    49.367096     105.1931 
   20300    26608    301.08068   -1470.3291   -2922609.8    23878.833     -2898731    256221.23    1.1642077     49.34717     49.34717    105.21813 
   20400    26608    302.38575   -474.52178   -2922412.1    23982.338   -2898429.8    256102.54    1.1647472    49.329871    49.329871    105.24317 
   20500    26608    302.36077   -1285.7561   -2922476.3    23980.358   -2898495.9    256315.57    1.1637791    49.344515    49.344515     105.2682 
   20600    26608     300.6616    393.77668   -2922649.6    23845.595     -2898804    256595.53    1.1625094    49.365587    49.365587    105.29324 
   20700    26608    297.74163   -1259.0409   -2922535.1    23614.011   -2898921.1    256726.94    1.1619144    49.372357    49.372357    105.31827 
   20800    26608    298.12097    304.80467   -2922565.4    23644.097   -2898921.3    256585.25    1.1625559    49.352866    49.352866     105.3433 
   20900    26608    297.51918   -926.26037   -2922506.3    23596.369     -2898910    256494.88    1.1629656    49.338312    49.338312    105.36834 
   21000    26608    301.87729    638.64855   -2922722.3    23942.012   -2898780.3    256424.84    1.1632832    49.325716    49.325716    105.39337 
   21100    26608    301.15389   -2016.6864   -2922629.8    23884.639   -2898745.2    256371.85    1.1635237    49.314762    49.314762    105.41841 
   21200    26608     301.2095     590.5057   -2922732.7     23889.05   -2898843.6    256440.96    1.1632101    49.315553    49.315553    105.44344 
   21300    26608    298.20117   -342.34425   -2922673.9    23650.458   -2899023.5    256752.79    1.1617974    49.339671    49.339671    105.46848 
   21400    26608    298.91881   -2777.5364   -2922705.9    23707.375   -2898998.5    256903.18    1.1611173    49.348263    49.348263    105.49351 
   21500    26608    299.77636   -485.72708   -2922451.1    23775.387   -2898675.7    257005.63    1.1606544    49.352246    49.352246    105.51854 
   21600    26608    300.81551    -1863.728   -2922454.2    23857.803   -2898596.4    257107.88    1.1601928    49.356208    49.356208    105.54358 
   21700    26608    299.66005   -1705.7915   -2922450.8    23766.162   -2898684.6    257223.51    1.1596713    49.361452    49.361452    105.56861 
   21800    26608    298.62798    369.39462   -2922506.5    23684.308   -2898822.2    257313.38    1.1592662    49.364222    49.364222    105.59365 
   21900    26608    298.13215    1770.9527   -2922714.1    23644.984   -2899069.1    257070.22    1.1603628    49.335044    49.335044    105.61868 
   22000    26608    296.51511   -2419.5721     -2922741    23516.736   -2899224.3    257052.25    1.1604439    49.327474    49.327474    105.64371 
   22100    26608    298.11244   -549.77009   -2922689.4    23643.421     -2899046    256902.99    1.1611181    49.307308    49.307308    105.66875 
   22200    26608    301.03213   -890.22314   -2922713.8    23874.983   -2898838.8    256522.19    1.1628417    49.264917    49.264917    105.69378 
   22300    26608    299.05062    1020.0933   -2922480.9    23717.828   -2898763.1    256104.85    1.1647367    49.218997    49.218997    105.71882 
   22400    26608     300.6682   -1621.9534   -2922694.7    23846.119   -2898848.6    256150.32    1.1645299    49.217539    49.217539    105.74385 
   22500    26608     297.2728   -2123.3002   -2922697.1    23576.828   -2899120.3    256369.71    1.1635334    49.232785    49.232785    105.76888 
   22600    26608    298.41724   -2854.2822   -2922782.6    23667.594     -2899115    256562.98    1.1626569     49.24551     49.24551    105.79392 
   22700    26608    297.42492   -858.42631   -2922574.8    23588.893   -2898985.9    256459.94     1.163124    49.229797    49.229797    105.81895 
   22800    26608     299.8866   -85.931328   -2922647.9     23784.13   -2898863.8    256349.55    1.1636249    49.213379    49.213379    105.84399 
   22900    26608    301.58242   -431.43748   -2922803.4    23918.626   -2898884.8     256349.5    1.1636251    49.207555    49.207555    105.86902 
   23000    26608     298.5488   -122.57525   -2922695.4    23678.029   -2899017.4    256550.99    1.1627112    49.221071    49.221071    105.89405 
   23100    26608    298.71815   -898.79227   -2922626.5     23691.46     -2898935    256955.43    1.1608812    49.254031    49.254031    105.91909 
   23200    26608    301.69867   -375.80949   -2922566.8    23927.846     -2898639    257300.77     1.159323    49.281295    49.281295    105.94412 
   23300    26608    301.94572    -1788.691   -2922553.4    23947.439     -2898606    257491.43    1.1584646    49.293727    49.293727    105.96916 
   23400    26608     299.9584    1264.9816   -2922481.9    23789.825   -2898692.1     257284.3    1.1593973    49.268077    49.268077    105.99419 
   23500    26608    300.64397   -547.29001   -2922815.4    23844.197   -2898971.2    257136.58    1.1600633    49.248116    49.248116    106.01922 
   23600    26608    297.55966   -624.35123   -2922739.4    23599.579   -2899139.8    256941.57    1.1609438    49.223626    49.223626    106.04426 
   23700    26608    298.44771   -1108.6979   -2922669.6    23670.011   -2898999.6    256895.53    1.1611518    49.213408    49.213408    106.06929 
   23800    26608    298.54144   -39.382796     -2922494    23677.445   -2898816.6    256849.85    1.1613583    49.203226    49.203226    106.09433 
   23900    26608    300.55921    -2372.041   -2922586.2    23837.475   -2898748.7    256911.36    1.1610803    49.203313    49.203313    106.11936 
   24000    26608    299.90226   -1985.0425   -2922535.2    23785.372   -2898749.8    256946.44    1.1609218    49.200868    49.200868    106.14439 
   24100    26608      301.009   -629.50004   -2922464.9    23873.148   -2898591.7    256778.54    1.1616808    49.178992    49.178992    106.16943 
   24200    26608    300.25268   -1943.7683   -2922376.1    23813.164   -2898562.9    256648.17     1.162271     49.16071     49.16071    106.19446 
   24300    26608    301.05245   -2652.1915     -2922629    23876.594   -2898752.4    256600.18    1.1624883    49.150321    49.150321     106.2195 
   24400    26608    300.77763   -1162.0206   -2922834.9    23854.798   -2898980.1    256625.82    1.1623722    49.146986    49.146986    106.24453 
   24500    26608    299.62844   -2349.6611   -2922782.9    23763.655   -2899019.3    256550.67    1.1627127       49.134       49.134    106.26956 
   24600    26608     300.0514   -1190.8867   -2922815.7    23797.201   -2899018.5    256532.31    1.1627959    49.126456    49.126456     106.2946 
   24700    26608    303.17667   -3170.0275   -2922841.4    24045.067   -2898796.3    256837.41    1.1614146    49.149874    49.149874    106.31963 
   24800    26608    302.23613   -1020.5385   -2922503.8    23970.473   -2898533.3    257173.33    1.1598975    49.176216    49.176216    106.34467 
   24900    26608    302.31289   -3233.8329   -2922545.8     23976.56   -2898569.2    257187.48    1.1598337    49.171782    49.171782     106.3697 
   25000    26608    300.38448   -127.90793   -2922571.5    23823.617   -2898747.9    257059.45    1.1604114    49.153757    49.153757    106.39474 
   25100    26608     301.5486    242.77092   -2922710.3    23915.944   -2898794.3    257079.81    1.1603195    49.149922    49.149922    106.41977 
   25200    26608    300.07971     290.1484   -2922572.4    23799.446   -2898772.9    257084.65    1.1602977    49.144604    49.144604     106.4448 
   25300    26608    299.35488   -700.64844   -2922525.1    23741.959   -2898783.2    257282.04    1.1594075    49.157687    49.157687    106.46984 
   25400    26608    300.28912    675.05903   -2922736.3    23816.054   -2898920.2    257366.69    1.1590261    49.159994    49.159994    106.49487 
   25500    26608    297.00408   -459.17123     -2922699    23555.516   -2899143.5    256999.31     1.160683    49.119121    49.119121    106.51991 
   25600    26608    298.90087    120.43744   -2922779.7    23705.951   -2899073.8    256578.83    1.1625851    49.073157    49.073157    106.54494 
   25700    26608    301.22405   -635.27558   -2922676.9    23890.204   -2898786.7    256279.73    1.1639419    49.038785    49.038785    106.56997 
   25800    26608    300.14419   -1524.9007   -2922570.9     23804.56   -2898766.4    256167.99    1.1644496    49.022335    49.022335    106.59501 
   25900    26608    297.41367   -1294.5234   -2922492.3    23588.001   -2898904.3    256426.77    1.1632744    49.041332    49.041332    106.62004 
   26000    26608     297.0201    1259.7354   -2922546.9    23556.787   -2898990.1    256435.57    1.1632345    49.036417    49.036417    106.64508 
   26100    26608    299.37295   -1860.7102   -2922659.7    23743.392   -2898916.3    256437.42    1.1632262    49.030839    49.030839    106.67011 
   26200    26608    302.40901   -2082.8229   -2922587.7    23984.184   -2898603.5    256574.11    1.1626064    49.038151    49.038151    106.69514 
   26300    26608    301.08409    154.16614   -2922502.2    23879.103     -2898623    256741.86    1.1618468    49.048425    49.048425    106.72018 
   26400    26608    299.98857    695.57974   -2922576.5    23792.217   -2898784.3    256607.82    1.1624537     49.02987     49.02987    106.74521 
   26500    26608    299.35183   -726.38445   -2922592.8    23741.717   -2898851.1    256574.71    1.1626037    49.020959    49.020959    106.77025 
   26600    26608    298.94104    172.78502   -2922540.4    23709.137   -2898831.3    256483.71    1.1630162    49.006521    49.006521    106.79528 
   26700    26608     302.1664   -1148.7542   -2922739.7    23964.942   -2898774.8    256379.45    1.1634892    48.990817    48.990817    106.82031 
   26800    26608     299.4932    103.72605   -2922606.9    23752.929     -2898854    256510.75    1.1628936    48.997619    48.997619    106.84535 
   26900    26608    296.76231   -1367.6205   -2922621.5    23536.342   -2899085.1    256739.85    1.1618559    49.013753    49.013753    106.87038 
   27000    26608    299.62914   -3433.1308   -2922829.4    23763.711   -2899065.6    257137.36    1.1600598    49.045939    49.045939    106.89542 
   27100    26608     300.2028   -1261.4701   -2922487.1    23809.208   -2898677.9    257300.87    1.1593226    49.055786    49.055786    106.92045 
   27200    26608      299.223    231.36741   -2922361.9      23731.5   -2898630.4    257110.19    1.1601824    49.031866    49.031866    106.94548 
   27300    26608    300.58575    1188.1989   -2922498.5     23839.58   -2898658.9    257031.39    1.1605381    49.018614    49.018614    106.97052 
   27400    26608    300.76273    1324.5666     -2922559    23853.616   -2898705.4     256843.4    1.1613875    48.994952    48.994952    106.99555 
   27500    26608    300.59215   -1741.7277   -2922591.8    23840.087   -2898751.7    256717.84    1.1619555    48.977246    48.977246    107.02059 
   27600    26608    300.75604    1469.4753   -2922827.7    23853.086   -2898974.6    256773.88    1.1617019    48.976864    48.976864    107.04562 
   27700    26608    296.73911   -1755.0615   -2922625.4    23534.501   -2899090.9    257016.98    1.1606031    48.994314    48.994314    107.07065 
   27800    26608    299.61251    885.32646   -2922604.5    23762.392   -2898842.1    257173.21    1.1598981    49.003474    49.003474    107.09569 
   27900    26608    298.01238    -3658.275   -2922376.8    23635.485   -2898741.3    257570.28      1.15811    49.035558    49.035558    107.12072 
   28000    26608    301.37111    518.63499   -2922570.7    23901.867   -2898668.9    257729.98    1.1573924    49.045027    49.045027    107.14576 
   28100    26608    301.90756   -454.84372   -2922631.6    23944.413   -2898687.2    258066.03    1.1558852     49.07126     49.07126    107.17079 
   28200    26608    296.74905    390.92586   -2922456.3     23535.29     -2898921    258094.81    1.1557564    49.068264    49.068264    107.19582 
   28300    26608    296.52522    1518.9575   -2922548.8    23517.538   -2899031.3     257964.8    1.1563388    49.050178    49.050178    107.22086 
   28400    26608    301.35051    454.33514   -2922684.8    23900.234   -2898784.6    257912.39    1.1565738    49.039471    49.039471    107.24589 
   28500    26608    301.90687   -2639.7463   -2922557.9    23944.358   -2898613.5    257872.03    1.1567548     49.02991     49.02991    107.27093 
   28600    26608    300.75805   -202.25623   -2922509.3    23853.245     -2898656    257732.07     1.157383    49.010885    49.010885    107.29596 
   28700    26608    299.86561    609.67479   -2922539.5    23782.465   -2898757.1    257786.91    1.1571368    49.010382    49.010382      107.321 
   28800    26608    300.63314   -1054.0474   -2922769.7    23843.338   -2898926.4    257958.04    1.1563691     49.02093     49.02093    107.34603 
   28900    26608    297.44315   -2580.3622   -2922738.2    23590.339   -2899147.9    257765.67    1.1572321    48.996934    48.996934    107.37106 
   29000    26608    297.16862   -3106.7596   -2922615.3    23568.566   -2899046.8    257601.64     1.157969    48.975633    48.975633     107.3961 
   29100    26608    301.46589    1539.8648   -2922594.7    23909.384   -2898685.3    257417.68    1.1587965    48.952438    48.952438    107.42113 
   29200    26608    301.74503    -787.7451   -2922544.9    23931.523   -2898613.4    257624.26    1.1578673    48.966371    48.966371    107.44617 
   29300    26608    301.14741    -265.6255   -2922575.1    23884.126     -2898691    257945.61    1.1564248    48.991194    48.991194     107.4712 
   29400    26608    300.84452    -1324.934   -2922670.7    23860.103   -2898810.6    257965.99    1.1563335    48.987424    48.987424    107.49623 
   29500    26608    297.27096   -1690.3555   -2922474.9    23576.682   -2898898.2    257767.94    1.1572219    48.962914    48.962914    107.52127 
   29600    26608    301.53744   -630.69246   -2922692.6    23915.059   -2898777.6    257614.11    1.1579129    48.942605    48.942605     107.5463 
   29700    26608    300.76032   -1889.7533   -2922397.5    23853.426   -2898544.1    257710.98    1.1574777     48.94611     48.94611    107.57134 
   29800    26608    301.82096   -3144.1852   -2922451.6    23937.545   -2898514.1    257874.51    1.1567437    48.955941    48.955941    107.59637 
   29900    26608    298.79659    27.766594   -2922452.4    23697.681   -2898754.7    258213.97     1.155223    48.982454    48.982454     107.6214 
   30000    26608    297.18334    28.783688   -2922377.5    23569.734   -2898807.8    258311.81    1.1547854    48.986036    48.986036    107.64644 
   30100    26608    299.94265    385.92504   -2922275.6    23788.575   -2898487.1    258582.59    1.1535762    49.006006    49.006006    107.67147 
   30200    26608    302.26801   -74.811382   -2922310.4    23973.001   -2898337.4    258766.74    1.1527552    49.017756    49.017756    107.69651 
   30300    26608    300.54743   -787.64551   -2922417.9    23836.541   -2898581.4    258739.44    1.1528769    49.009474    49.009474    107.72154 
   30400    26608    300.38577   -2751.6027   -2922562.8    23823.719     -2898739    258757.21    1.1527977    49.005463    49.005463    107.74657 
   30500    26608    297.77574   -1255.6863   -2922409.3    23616.717   -2898792.6    258620.34    1.1534078     48.98681     48.98681    107.77161 
   30600    26608    301.63367   -1075.9931   -2922603.4    23922.691   -2898680.7     258292.4    1.1548722    48.950057    48.950057    107.79664 
   30700    26608    301.19854   -22.495509   -2922358.8    23888.181   -2898470.6     258021.4    1.1560852    48.918691    48.918691    107.82168 
   30800    26608    303.17546   -294.53832     -2922341    24044.971   -2898296.1    258336.27    1.1546761    48.942848    48.942848    107.84671 
   30900    26608    302.24237    40.101373   -2922503.7    23970.967   -2898532.7     258651.9     1.153267    48.967055    48.967055    107.87174 
   31000    26608    299.40178   -1449.4641   -2922492.8    23745.679   -2898747.1     258523.7    1.1538389    48.949239    48.949239    107.89678 
   31100    26608    299.90136    -579.7496   -2922548.8    23785.301   -2898763.5    258522.85    1.1538427    48.943481    48.943481    107.92181 
   31200    26608    300.07405   -992.30737     -2922575    23798.997     -2898776    258676.53    1.1531573    48.952348    48.952348    107.94685 
   31300    26608    296.47544   -625.36148   -2922402.7     23513.59   -2898889.1     258801.7    1.1525995    48.958515    48.958515    107.97188 
   31400    26608    298.90357   -1517.4872   -2922512.5    23706.165   -2898806.4    258739.05    1.1528786    48.946914    48.946914    107.99691 
   31500    26608    301.27177    204.96921   -2922441.8    23893.988   -2898547.8    258653.63    1.1532593    48.933163    48.933163    108.02195 
   31600    26608    300.54137   -2134.7064   -2922286.5     23836.06   -2898450.4    258483.64    1.1540178    48.911413    48.911413    108.04698 
   31700    26608    299.77896   -1443.0262   -2922269.7    23775.593   -2898494.1    258374.15    1.1545068    48.895389    48.895389    108.07202 
   31800    26608    300.27904   -886.00293   -2922613.8    23815.255   -2898798.5    258211.94     1.155232    48.874378    48.874378    108.09705 
   31900    26608    299.41489    1332.1665   -2922706.7    23746.719     -2898960    257777.86    1.1571774    48.827625    48.827625    108.12208 
   32000    26608    299.93221   -378.15556   -2922634.4    23787.747   -2898846.6    257311.64    1.1592741    48.777804    48.777804    108.14712 
   32100    26608    300.12437   -77.764492   -2922494.2    23802.988   -2898691.2    257254.75    1.1595304    48.766767    48.766767    108.17215 
   32200    26608    301.80026    -1653.301   -2922551.2    23935.903   -2898615.3    257188.25    1.1598303    48.754822    48.754822    108.19719 
   32300    26608    299.84159     203.8327   -2922538.8    23780.561   -2898758.2    257522.22    1.1583261    48.780824    48.780824    108.22222 
   32400    26608    296.67622    602.75862   -2922516.4    23529.513   -2898986.9    257813.01    1.1570196    48.802713    48.802713    108.24726 
   32500    26608    297.53124    -2177.114   -2922497.7    23597.326   -2898900.4    257995.28    1.1562022    48.814318    48.814318    108.27229 
   32600    26608    299.73139    -295.7178     -2922396    23771.821   -2898624.2    258129.92    1.1555992    48.821409    48.821409    108.29732 
   32700    26608    298.86762   -243.22026   -2922219.1    23703.314   -2898515.8    258341.86    1.1546511    48.835803    48.835803    108.32236 
   32800    26608    301.71155   -3864.6524   -2922411.3    23928.868   -2898482.4     258699.5    1.1530548     48.86395     48.86395    108.34739 
   32900    26608    298.63518    625.26107   -2922327.2     23684.88   -2898642.3    258851.76    1.1523766    48.872681    48.872681    108.37243 
   33000    26608    297.85276    1175.1418   -2922541.9    23622.826   -2898919.1    259099.84    1.1512732    48.890449    48.890449    108.39746 
   33100    26608     298.1646     447.9072   -2922576.1    23647.557   -2898928.5     259245.5    1.1506264    48.898543    48.898543    108.42249 
   33200    26608    297.99576   -3198.8557     -2922445    23634.167   -2898810.8    259346.93    1.1501764    48.902462    48.902462    108.44753 
   33300    26608    301.09032   -2733.6527   -2922540.5    23879.598   -2898660.9    259563.23    1.1492179    48.917206    48.917206    108.47256 
   33400    26608    301.52839   -516.11515   -2922505.8    23914.341   -2898591.5    259901.97    1.1477201    48.943467    48.943467     108.4976 
   33500    26608    301.61177   -1683.1608   -2922462.4    23920.954   -2898541.4    260133.99    1.1466964    48.959661    48.959661    108.52263 
   33600    26608    300.89797   -1326.7435   -2922353.1    23864.342   -2898488.8    260162.43     1.146571    48.956691    48.956691    108.54766 
   33700    26608    299.86896   -915.41556   -2922427.4    23782.731   -2898644.6    260080.85    1.1469307    48.943371    48.943371     108.5727 
   33800    26608    297.54051   -828.91196   -2922370.5    23598.061   -2898772.5    259984.92    1.1473539    48.928703    48.928703    108.59773 
   33900    26608    301.34576   -187.98818   -2922511.9    23899.857   -2898612.1    260028.52    1.1471615    48.927167    48.927167    108.62277 
   34000    26608     299.6177   -294.83367   -2922250.7    23762.804   -2898487.9    259833.07    1.1480244     48.90314     48.90314     108.6478 
   34100    26608    300.55155   -738.59665   -2922300.3    23836.868   -2898463.5    259605.27    1.1490318    48.876068    48.876068    108.67283 
   34200    26608    299.76041   -489.67159   -2922479.5    23774.122   -2898705.4    259321.85    1.1502876    48.843755    48.843755    108.69787 
   34300    26608    299.40293   -947.12934   -2922564.5     23745.77   -2898818.7    259075.04    1.1513835    48.814884    48.814884     108.7229 
   34400    26608    298.49293   -494.61365   -2922470.8    23673.598   -2898797.2    258875.73    1.1522699    48.790487    48.790487    108.74794 
   34500    26608     300.6126    -3685.305   -2922432.6    23841.709   -2898590.9    259041.69    1.1515317    48.800507    48.800507    108.77297 
   34600    26608    300.10134   -2695.0639   -2922210.6    23801.161   -2898409.5    259198.38    1.1508356    48.809648    48.809648      108.798 
   34700    26608    302.63526   -76.345079   -2922378.9    24002.127   -2898376.8     259498.8    1.1495032    48.832308    48.832308    108.82304 
   34800    26608    299.33128   -2296.1848   -2922461.2    23740.087   -2898721.1    259841.09     1.147989    48.858884    48.858884    108.84807 
   34900    26608    298.46886    2627.5068   -2922512.4    23671.688   -2898840.7    259863.38    1.1478905    48.855362    48.855362    108.87311 
   35000    26608    299.85116   -154.66607   -2922572.3     23781.32     -2898791    259829.46    1.1480404    48.846558    48.846558    108.89814 
   35100    26608    301.91038    -1007.569   -2922477.4    23944.637   -2898532.8    259850.46    1.1479476    48.842918    48.842918    108.92317 
   35200    26608    300.95715    603.81774   -2922343.1    23869.036     -2898474    259984.08    1.1473576    48.849861    48.849861    108.94821 
   35300    26608    301.54331    228.34939   -2922396.3    23915.525   -2898480.7    260005.34    1.1472638    48.846247    48.846247    108.97324 
   35400    26608    299.98642   -296.39998   -2922364.3    23792.047   -2898572.2    259764.26    1.1483285    48.817989    48.817989    108.99828 
   35500    26608    298.25693    707.16814   -2922608.5     23654.88   -2898953.6    259377.17    1.1500423    48.776001    48.776001    109.02331 
   35600    26608    299.38299   -722.09821   -2922706.4    23744.189   -2898962.2    259298.21    1.1503925    48.762978    48.762978    109.04834 
   35700    26608    299.18471   -594.20811   -2922489.8    23728.463   -2898761.4    259014.07    1.1516545     48.73066     48.73066    109.07338 
   35800    26608    301.66454   -332.60868   -2922499.1    23925.139     -2898574    259163.57    1.1509902    48.739128    48.739128    109.09841 
   35900    26608    298.39412   -2819.2316   -2922277.3    23665.761   -2898611.6    259440.88    1.1497599    48.759604    48.759604    109.12345 
   36000    26608    300.75246   -1184.9008   -2922454.3    23852.801   -2898601.5    259497.62    1.1495085    48.759342    48.759342    109.14848 
   36100    26608    301.44367   -2558.8441   -2922531.3    23907.622   -2898623.7    259531.31    1.1493593    48.756916    48.756916    109.17352 
   36200    26608    298.29486    241.86898   -2922367.6    23657.889   -2898709.7    259448.91    1.1497243    48.743588    48.743588    109.19855 
   36300    26608    299.90657    -807.4733   -2922588.3    23785.714   -2898802.6    259353.65    1.1501466    48.729053    48.729053    109.22358 
   36400    26608    299.39095   -2380.0414   -2922515.8     23744.82     -2898771    259674.45    1.1487257    48.753594    48.753594    109.24862 
   36500    26608    300.74162   -850.87592   -2922375.7    23851.942   -2898523.8     260002.2    1.1472777    48.778763    48.778763    109.27365 
   36600    26608    300.58403   -1388.9554   -2922242.6    23839.444   -2898403.2    259956.45    1.1474796    48.768886    48.768886    109.29869 
   36700    26608    302.36717   -1185.8262     -2922458    23980.865   -2898477.2     259804.9    1.1481489    48.749085    48.749085    109.32372 
   36800    26608    297.14237   -160.30016   -2922401.8    23566.484   -2898835.3    259412.32    1.1498864    48.706664    48.706664    109.34875 
   36900    26608    296.53979   -989.21146   -2922365.4    23518.693   -2898846.7    259299.75    1.1503857    48.690521    48.690521    109.37379 
   37000    26608    300.14251   -1760.5275   -2922458.1    23804.426   -2898653.7     259215.3    1.1507604    48.677021    48.677021    109.39882 
   37100    26608    302.21598    596.25863   -2922498.3    23968.875   -2898529.4    259066.41    1.1514218    48.657472    48.657472    109.42386 
   37200    26608    301.03674   -1881.2111   -2922499.1    23875.348   -2898623.7     258675.9    1.1531601    48.615225    48.615225    109.44889 
   37300    26608    297.39122   -2200.0476   -2922500.7    23586.221   -2898914.5    258489.05    1.1539936    48.592107    48.592107    109.47392 
   37400    26608    297.52708   -929.23191   -2922587.4    23596.996   -2898990.4    258650.32    1.1532741    48.601706    48.601706    109.49896 
   37500    26608    297.71373   -741.49984     -2922474    23611.799   -2898862.2    258975.81    1.1518246    48.626719    48.626719    109.52399 
   37600    26608    298.70282   -2979.9802   -2922365.4    23690.244   -2898675.2    259150.09      1.15105     48.63752     48.63752    109.54903 
   37700    26608    300.70452   -1582.0669   -2922374.9        23849   -2898525.9    259167.56    1.1509724    48.633602    48.633602    109.57406 
   37800    26608    301.06536   -3214.3655   -2922474.2    23877.618   -2898596.6     259318.8    1.1503012    48.642235    48.642235    109.59909 
   37900    26608     297.9679     191.8384   -2922437.2    23631.957   -2898805.2    259498.96    1.1495026    48.653572    48.653572    109.62413 
   38000    26608    300.20771   -1496.9982   -2922632.5    23809.598   -2898822.9    259700.69    1.1486096    48.666923    48.666923    109.64916 
   38100    26608    297.28669   -815.81157   -2922371.3     23577.93   -2898793.4    259808.91    1.1481312    48.671506    48.671506     109.6742 
   38200    26608    298.51482    81.353449   -2922341.2    23675.334   -2898665.9    259906.81    1.1476987    48.675121    48.675121    109.69923 
   38300    26608    299.21084    10.082838     -2922223    23730.535   -2898492.5    260009.09    1.1472472    48.679143    48.679143    109.72426 
   38400    26608    301.06592   -406.76568   -2922153.1    23877.662   -2898275.4    260184.38    1.1464743    48.689995    48.689995     109.7493 
   38500    26608    304.18458   -3371.4412   -2922277.4    24125.005   -2898152.3    260333.98    1.1458155    48.698437    48.698437    109.77433 
   38600    26608    299.65573    732.83698   -2922295.8     23765.82     -2898530    260433.02    1.1453798    48.702147    48.702147    109.79937 
   38700    26608    298.78591   -415.00833   -2922381.7    23696.834   -2898684.8    260670.98    1.1443342    48.718838    48.718838     109.8244 
   38800    26608    300.46992   -2507.1681   -2922521.5    23830.393   -2898691.1    260880.16    1.1434166    48.732828    48.732828    109.84943 
   38900    26608    298.63607   -768.09318   -2922238.5     23684.95   -2898553.6    260912.45    1.1432751    48.730292    48.730292    109.87447 
   39000    26608    301.16148    -3513.408   -2922206.3    23885.241   -2898321.1    261018.53    1.1428105    48.734645    48.734645     109.8995 
   39100    26608    299.33446   -1147.2829   -2922028.5    23740.339   -2898288.1    261010.14    1.1428472    48.728312    48.728312    109.92454 
   39200    26608    300.01126   -1122.6681   -2922265.7    23794.017   -2898471.6    260920.68     1.143239    48.714414    48.714414    109.94957 
   39300    26608    298.16227   -696.78236   -2922245.3    23647.373     -2898598    260547.14    1.1448781     48.67399     48.67399     109.9746 
   39400    26608    298.67631   -38.429994   -2922234.8    23688.142   -2898546.7    260073.59    1.1469627    48.624203    48.624203    109.99964 
   39500    26608    301.84237   -1436.8102   -2922405.9    23939.243   -2898466.6    259709.09    1.1485725    48.584589    48.584589    110.02467 
   39600    26608    302.11319    1198.9003   -2922417.8    23960.722     -2898457    259639.27    1.1488813    48.572533    48.572533    110.04971 
   39700    26608    299.23751    2594.7156   -2922415.9     23732.65   -2898683.2    259769.06    1.1483073    48.579146    48.579146    110.07474 
   39800    26608    299.16236   -736.82915   -2922568.8     23726.69   -2898842.1    260014.24    1.1472245     48.59654     48.59654    110.09978 
   39900    26608    297.53335   -2968.4926     -2922366    23597.493   -2898768.5    260157.95    1.1465908    48.604442    48.604442    110.12481 
   40000    26608    299.65953   -1434.5956   -2922217.8    23766.121   -2898451.7    260089.29    1.1468935    48.592505    48.592505    110.14984 
   40100    26608    301.45601    281.96044     -2922334    23908.601   -2898425.4    260060.32    1.1470212    48.584279    48.584279    110.17488 
   40200    26608    300.01565    353.19986   -2922346.6    23794.365   -2898552.2    260065.58     1.146998    48.579251    48.579251    110.19991 
   40300    26608    298.90991   -2769.2568   -2922411.4    23706.668   -2898704.7    260241.48    1.1462228    48.590158    48.590158    110.22495 
   40400    26608    297.52508   -2861.7268   -2922361.3    23596.837   -2898764.4    260345.86    1.1457632    48.594384    48.594384    110.24998 
   40500    26608    299.47488   -486.31801   -2922423.3    23751.477   -2898671.8    260367.09    1.1456698    48.590849    48.590849    110.27501 
   40600    26608    301.25226    2033.5094   -2922297.8    23892.441   -2898405.4    260314.31    1.1459021    48.580409    48.580409    110.30005 
   40700    26608    300.60453     367.4194   -2922281.2     23841.07   -2898440.2    260421.05    1.1454324    48.584855    48.584855    110.32508 
   40800    26608    300.21656   -330.47869   -2922484.4    23810.299   -2898674.1    260877.17    1.1434297    48.621868    48.621868    110.35012 
   40900    26608    303.45003   -22.974439     -2922773    24066.747   -2898706.3    261203.98    1.1419991    48.646796    48.646796    110.37515 
   41000    26608    298.54538   -3621.7726   -2922441.7    23677.758     -2898764    261435.38    1.1409883    48.662821    48.662821    110.40018 
   41100    26608    299.63689   -1493.1953   -2922319.9    23764.326   -2898555.6    261306.87    1.1415495    48.645344    48.645344    110.42522 
   41200    26608    303.57183   -1326.8145   -2922369.1    24076.407   -2898292.7    261381.12    1.1412252    48.646741    48.646741    110.45025 
   41300    26608    304.03791   -1381.1339   -2922499.6    24113.372   -2898386.3    261353.34    1.1413465    48.638644    48.638644    110.47529 
   41400    26608    300.90646   -2187.1517   -2922396.1    23865.015   -2898531.1     261571.4     1.140395    48.653419    48.653419    110.50032 
   41500    26608    299.35109   -831.86303   -2922339.6    23741.659   -2898597.9    261907.91    1.1389298     48.67919     48.67919    110.52535 
   41600    26608    300.13236    2770.9797   -2922415.8    23803.622   -2898612.2    262077.66    1.1381921    48.689449    48.689449    110.55039 
   41700    26608    298.00658   -1750.6579   -2922117.7    23635.025   -2898482.7    262316.92    1.1371539    48.706155    48.706155    110.57542 
   41800    26608    299.58484   -2402.5993     -2922035    23760.197   -2898274.8    262538.36    1.1361948    48.721194    48.721194    110.60046 
   41900    26608    301.14728    73.003247   -2922166.4    23884.115   -2898282.3    262470.13    1.1364901    48.709351    48.709351    110.62549 
   42000    26608    300.42465   -773.92963   -2922405.3    23826.803   -2898578.5    262286.68     1.137285    48.686817    48.686817    110.65052 
   42100    26608    298.61739   -1569.5695   -2922372.2    23683.469   -2898688.7    262116.68    1.1380226    48.665531    48.665531    110.67556 
   42200    26608    298.27039    146.08528   -2922289.6    23655.948   -2898633.6    261894.36    1.1389887    48.639387    48.639387    110.70059 
   42300    26608    302.38865   -1921.5113   -2922439.2    23982.569   -2898456.6     261935.4    1.1388102    48.637699    48.637699    110.72563 
   42400    26608     302.3262   -1877.6775   -2922297.2    23977.616   -2898319.6    261926.11    1.1388506     48.63134     48.63134    110.75066 
   42500    26608    298.99379   -2034.3391   -2922300.6    23713.321   -2898587.3    261869.02    1.1390989    48.620545    48.620545    110.77569 
   42600    26608    300.44243   -2355.8503     -2922572    23828.213   -2898743.8    261702.06    1.1398256    48.599552    48.599552    110.80073 
   42700    26608    297.96453   -2084.5181   -2922311.2     23631.69   -2898679.5    261506.79    1.1406767     48.57593     48.57593    110.82576 
   42800    26608    299.41206   -610.99887   -2922167.9    23746.494   -2898421.5    261560.42    1.1404429    48.575424    48.575424     110.8508 
   42900    26608    300.81448   -1839.9661   -2922205.1     23857.72   -2898347.3    261590.94    1.1403098    48.572774    48.572774    110.87583 
   43000    26608    302.21098   -744.52563   -2922408.3    23968.478   -2898439.8    261749.04    1.1396211    48.581965    48.581965    110.90087 
   43100    26608     298.0906   -818.17041   -2922259.7    23641.688     -2898618     262023.3    1.1384282    48.601926    48.601926     110.9259 
   43200    26608     298.8866    -331.8825   -2922346.9     23704.82   -2898642.1    262146.56    1.1378929    48.607871    48.607871    110.95093 
   43300    26608    299.94189   -56.783286   -2922364.2    23788.515   -2898575.7    262133.66    1.1379489    48.601193    48.601193    110.97597 
   43400    26608    299.30675   -3244.0212   -2922184.8    23738.142   -2898446.6    262240.17    1.1374867    48.605583    48.605583      111.001 
   43500    26608     301.9898   -216.03265   -2922351.9    23950.936     -2898401    262228.22    1.1375386    48.598996    48.598996    111.02604 
   43600    26608    300.64909    1145.0144     -2922509    23844.603   -2898664.4    262123.85    1.1379915    48.583846    48.583846    111.05107 
   43700    26608    299.19254    -1219.591   -2922573.3    23729.084   -2898844.3    262119.25    1.1380115    48.577945    48.577945     111.0761 
   43800    26608    299.36717   -533.73995   -2922456.2    23742.934   -2898713.3    262072.29    1.1382154    48.568121    48.568121    111.10114 
   43900    26608     298.0313   -2633.0929   -2922227.9    23636.986   -2898590.9    261992.38    1.1385625    48.555246    48.555246    111.12617 
   44000    26608    299.13568   -2486.1435     -2922224    23724.574   -2898499.4    261932.97    1.1388208    48.544272    48.544272    111.15121 
   44100    26608     299.1005   -674.23777   -2922214.8    23721.785     -2898493    261898.95    1.1389687    48.535654    48.535654    111.17624 
   44200    26608    300.37017   -1037.8905   -2922181.6    23822.482   -2898359.1    261880.76    1.1390478    48.528505    48.528505    111.20127 
   44300    26608    303.72347    337.09277     -2922283    24088.433   -2898194.6    261659.66    1.1400103    48.502556    48.502556    111.22631 
   44400    26608    300.64943    799.92191   -2922263.9    23844.631   -2898419.2    261565.68    1.1404199    48.488388    48.488388    111.25134 
   44500    26608    298.74193   -729.71262   -2922317.9    23693.346   -2898624.6    261671.07    1.1399606    48.492701    48.492701    111.27638 
   44600    26608    299.95836   -1523.7179   -2922422.6    23789.821   -2898632.8    262099.13    1.1380988     48.52689     48.52689    111.30141 
   44700    26608    303.14343   -2545.4321   -2922508.2    24042.431   -2898465.8     262474.8    1.1364699    48.556194    48.556194    111.32644 
   44800    26608    300.60139     687.7448   -2922169.1     23840.82   -2898328.2    262675.45    1.1356018     48.56929     48.56929    111.35148 
   44900    26608     304.2789   -2158.9634   -2922242.1    24132.486   -2898109.6    263034.15    1.1340532    48.596978    48.596978    111.37651 
   45000    26608    299.69459   -2222.2966   -2922015.5    23768.902   -2898246.6    263377.59    1.1325744    48.623229    48.623229    111.40155 
   45100    26608    299.47738   -1397.7865   -2922251.7    23751.675     -2898500    263334.08    1.1327615    48.613751    48.613751    111.42658 
   45200    26608    296.47034   -829.93204   -2922065.4    23513.185   -2898552.2    262983.11    1.1342733    48.575888    48.575888    111.45161 
   45300    26608    300.10546   -1237.9488   -2922272.1    23801.488   -2898470.6    262632.66    1.1357868     48.53806     48.53806    111.47665 
   45400    26608    303.52183    -1586.255   -2922434.4    24072.442     -2898362    262121.69    1.1380009    48.485377    48.485377    111.50168 
   45500    26608     299.4419   -458.15675   -2922243.9    23748.861     -2898495    261815.44     1.139332    48.451605    48.451605    111.52672 
   45600    26608      299.363   -1255.9994   -2922480.2    23742.603   -2898737.6    261827.26    1.1392806    48.447262    48.447262    111.55175 
   45700    26608    299.31295   -1124.7859   -2922468.7    23738.633   -2898730.1    261863.45    1.1391231    48.445174    48.445174    111.57678 
   45800    26608    298.77247   -2977.5157     -2922241    23695.768   -2898545.2    261817.23    1.1393242    48.435466    48.435466    111.60182 
   45900    26608    301.12588    123.43566   -2922250.5    23882.418   -2898368.1    261936.95    1.1388035    48.441105    48.441105    111.62685 
   46000    26608    302.03132    134.40099   -2922377.8    23954.229   -2898423.6    262072.16     1.138216    48.448173    48.448173    111.65189 
   46100    26608    300.70302   -315.57843   -2922358.4    23848.881   -2898509.5    261925.73    1.1388523    48.429208    48.429208    111.67692 
   46200    26608    302.42301   -701.64413   -2922536.3    23985.294   -2898551.1    261997.42    1.1385406    48.430407    48.430407    111.70195 
   46300    26608    299.87613   -362.35905   -2922490.9    23783.299   -2898707.6    261920.29    1.1388759    48.417853    48.417853    111.72699 
   46400    26608    298.21683    210.23335   -2922464.2      23651.7   -2898812.5    261831.38    1.1392627    48.404212    48.404212    111.75202 
   46500    26608    299.42904   -297.96578   -2922370.6    23747.841   -2898622.7    261905.53    1.1389401    48.405644    48.405644    111.77706 
   46600    26608     300.9112   -3841.2515   -2922224.3    23865.392   -2898358.9    261989.88    1.1385734    48.408017    48.408017    111.80209 
   46700    26608    299.21201   -1067.9661   -2922124.5    23730.628   -2898393.9    261812.44    1.1393451    48.386205    48.386205    111.82713 
   46800    26608    300.31927    818.61381   -2922376.7    23818.445   -2898558.2    261420.02    1.1410553    48.344519    48.344519    111.85216 
   46900    26608    300.21981    500.73703   -2922538.2    23810.557   -2898727.7     261144.6    1.1422588    48.313639    48.313639    111.87719 
   47000    26608    299.09357   -120.41892   -2922498.5    23721.235   -2898777.3    260879.05    1.1434215    48.283666    48.283666    111.90223 
   47100    26608    298.75927   -2591.7603   -2922381.5    23694.721   -2898686.8    260732.13    1.1440658     48.26467     48.26467    111.92726 
   47200    26608    301.67454     -57.2127   -2922471.4    23925.932   -2898545.5    260896.78    1.1433438    48.274508    48.274508     111.9523 
   47300    26608      299.815    343.94041   -2922335.2    23778.452   -2898556.7    261023.99    1.1427866    48.280878    48.280878    111.97733 
   47400    26608    301.65723    1215.1152   -2922466.2     23924.56   -2898541.7    261197.44    1.1420277    48.291519    48.291519    112.00236 
   47500    26608    300.88271   -1702.9123   -2922443.4    23863.132   -2898580.3    261478.53       1.1408    48.312098    48.312098     112.0274 
   47600    26608    299.76197   -3780.2059   -2922499.4    23774.245   -2898725.1    261746.96    1.1396301     48.33149     48.33149    112.05243 
   47700    26608    295.93855   -1722.8693   -2922460.5    23471.009   -2898989.5    261899.15    1.1389679    48.340139    48.340139    112.07747 
   47800    26608    299.73801   -2047.3394   -2922562.4    23772.345     -2898790    261839.06    1.1392292    48.329196    48.329196     112.1025 
   47900    26608    300.66755   -1869.5923   -2922343.2    23846.068   -2898497.2    261648.43    1.1400592    48.306207    48.306207    112.12753 
   48000    26608    299.63758     -585.408   -2922316.8     23764.38   -2898552.4    261471.65      1.14083    48.284495    48.284495    112.15257 
   48100    26608    298.92667   -825.07936   -2922461.1    23707.997   -2898753.1     261521.5    1.1406126    48.283709    48.283709     112.1776 
   48200    26608    298.89348   -578.58404   -2922473.7    23705.366   -2898768.3    261729.15    1.1397076    48.297485    48.297485    112.20264 
   48300    26608    300.90077    569.80509   -2922410.5    23864.564   -2898545.9    261875.99    1.1390686    48.305643    48.305643    112.22767 
   48400    26608    299.93131   -1228.2183   -2922190.7    23787.676     -2898403    261922.84    1.1388648    48.304577    48.304577     112.2527 
   48500    26608     299.3729   -2345.3036     -2922178    23743.388   -2898434.6    261909.44    1.1389231    48.297955    48.297955    112.27774 
   48600    26608    301.29913   -1422.4163   -2922381.3    23896.158   -2898485.1    261898.16    1.1389722    48.291532    48.291532    112.30277 
   48700    26608    301.71072   -160.50271   -2922454.9    23928.802   -2898526.1    261640.37    1.1400944     48.26238     48.26238    112.32781 
   48800    26608    302.25747   -156.20795     -2922615    23972.165   -2898642.8    261627.78    1.1401493    48.255842    48.255842    112.35284 
   48900    26608    298.87621   -718.39093   -2922550.1    23703.996   -2898846.2    261633.85    1.1401228    48.251027    48.251027    112.37787 
   49000    26608    296.91306   -2760.1963   -2922553.1    23548.297   -2899004.8    261864.56    1.1391183    48.266921    48.266921    112.40291 
   49100    26608    299.12544   -697.14531   -2922468.8    23723.762     -2898745    261983.04    1.1386031    48.272463    48.272463    112.42794 
   49200    26608    300.87051   -23.717274   -2922353.6    23862.164   -2898491.4    262083.71    1.1381658    48.276362    48.276362    112.45298 
   49300    26608    300.54567   -2103.7847   -2922300.8    23836.401   -2898464.4       262013     1.138473    48.264477    48.264477    112.47801 
   49400    26608    299.46388       1222.7   -2922283.7    23750.604   -2898533.1    261909.64    1.1389222    48.249588    48.249588    112.50304 
   49500    26608    299.96551    55.304785   -2922443.7    23790.388   -2898653.3    262203.01    1.1376479    48.271233    48.271233    112.52808 
   49600    26608    297.40625   -1915.5529   -2922382.2    23587.412   -2898794.8    262582.94    1.1360019    48.300819    48.300819    112.55311 
   49700    26608    298.67487   -428.92865     -2922354    23688.028   -2898665.9    262735.41    1.1353426    48.309468    48.309468    112.57815 
   49800    26608    301.93748   -809.46756   -2922378.5    23946.786   -2898431.7    262938.06    1.1344676    48.322723    48.322723    112.60318 
   49900    26608    299.03277    269.50871   -2922282.7    23716.413   -2898566.3    262990.67    1.1342407    48.322186    48.322186    112.62821 
   50000    26608    298.78824   -670.00238     -2922354    23697.019     -2898657     262780.9    1.1351461    48.297543    48.297543    112.65325 
   50100    26608    300.31337   -2254.0926   -2922388.1    23817.978   -2898570.1    262742.22    1.1353132    48.288623    48.288623    112.67828 
   50200    26608    303.35237   -364.04683   -2922341.5    24059.002   -2898282.5    262746.57    1.1352944     48.28366     48.28366    112.70332 
   50300    26608    302.34279    561.72259   -2922185.4    23978.932   -2898206.5    262635.45    1.1357748    48.268088    48.268088    112.72835 
   50400    26608    299.46996    -997.1176   -2922359.1    23751.087     -2898608    262561.81    1.1360933    48.255963    48.255963    112.75339 
   50500    26608    302.32531   -32.816134   -2922600.3    23977.545   -2898622.7    262510.24    1.1363165    48.245868    48.245868    112.77842 
   50600    26608    301.21185    -555.8334   -2922453.1    23889.236   -2898563.9    262274.79    1.1373366    48.218876    48.218876    112.80345 
   50700    26608    300.97154   -799.29148     -2922338    23870.177   -2898467.8    262195.95    1.1376786    48.206279    48.206279    112.82849 
   50800    26608    298.66386   -689.96752   -2922204.4    23687.154   -2898517.3    262199.69    1.1376624    48.201275    48.201275    112.85352 
   50900    26608    300.84274   -657.65176   -2922439.2    23859.962   -2898579.2    262021.66    1.1384353    48.179565    48.179565    112.87856 
   51000    26608    301.18799   -1173.0173   -2922443.4    23887.344     -2898556    261967.72    1.1386697    48.169265    48.169265    112.90359 
   51100    26608    298.94093   -2453.3611   -2922235.7    23709.129   -2898526.5     261845.8    1.1391999    48.152716    48.152716    112.92862 
   51200    26608    300.08603    725.15483   -2922206.6    23799.947   -2898406.6    261810.03    1.1393556    48.144091    48.144091    112.95366 
   51300    26608    301.90742   -78.425823   -2922189.8    23944.402   -2898245.4    261784.82    1.1394653    48.136439    48.136439    112.97869 
   51400    26608    304.19804    2053.1516   -2922343.8    24126.072   -2898217.7    261855.72    1.1391567    48.137625    48.137625    113.00373 
[...]
  506800    26608    301.48253   -482.89071   -2923079.8    23910.704   -2899169.1    513299.25   0.58113219    47.551471    47.551471    227.00881 
  506900    26608      300.909    420.27344   -2923266.7    23865.217   -2899401.5    513147.16   0.58130443    47.541804    47.541804    227.03385 
  507000    26608    298.73923    1206.2879   -2923099.5    23693.132   -2899406.3    512813.54    0.5816826    47.523727    47.523727    227.05888 
  507100    26608    299.88872    180.91145   -2923019.1    23784.298   -2899234.8    512751.68   0.58175278    47.518241    47.518241    227.08392 
  507200    26608    301.51212   -158.14019   -2922934.4    23913.051   -2899021.3    512811.21   0.58168524    47.518381    47.518381    227.10895 
  507300    26608    302.64797    521.09173   -2923128.7    24003.136   -2899125.6    513196.03   0.58124906    47.533587    47.533587    227.13398 
  507400    26608    302.58906   -208.06129   -2923241.7    23998.463   -2899243.2    513500.86   0.58090402    47.545082    47.545082    227.15902 
  507500    26608    300.54952   -87.581452   -2923148.1    23836.707   -2899311.4    513574.32   0.58082092    47.545863    47.545863    227.18405 
  507600    26608    298.71518   -816.79826     -2923085    23691.225   -2899393.8    513039.78   0.58142609    47.518495    47.518495    227.20909 
  507700    26608     297.3976    180.05014   -2923115.9    23586.727   -2899529.2    512585.12   0.58194181    47.494818    47.494818    227.23412 
  507800    26608    297.87589   -428.36081   -2923182.6     23624.66     -2899558    512259.01   0.58231228    47.477092    47.477092    227.25915 
  507900    26608    300.90298    1549.1757   -2923156.4    23864.739   -2899291.7    512465.27   0.58207791    47.484034    47.484034    227.28419 
  508000    26608    300.58691    18.392561   -2922958.9    23839.672   -2899119.2    513169.12   0.58127955    47.514015    47.514015    227.30922 
  508100    26608    301.56735   -329.38868   -2923024.4    23917.431     -2899107    513632.92   0.58075466    47.532864    47.532864    227.33426 
  508200    26608    300.73715   -588.05471   -2923193.9    23851.587   -2899342.3    513593.09   0.58079971    47.528404    47.528404    227.35929 
  508300    26608    300.36391   -307.92189   -2923293.5    23821.985   -2899471.5    513284.01   0.58114943    47.511485    47.511485    227.38432 
  508400    26608    299.49632    664.02903   -2923168.8    23753.177   -2899415.7    513460.43   0.58094976    47.517034    47.517034    227.40936 
  508500    26608    299.89842   -1024.4582     -2923110    23785.067   -2899324.9    513823.56   0.58053919    47.531218    47.531218    227.43439 
  508600    26608    299.67014   -896.51794   -2923042.6    23766.962   -2899275.6    514035.25   0.58030012    47.538391    47.538391    227.45943 
  508700    26608     301.2007   -531.67877   -2923134.3    23888.352   -2899245.9    513408.45   0.58100858    47.506785    47.506785    227.48446 
  508800    26608     299.1643   -587.32914   -2923128.7    23726.844   -2899401.9    512837.67   0.58165524    47.477757    47.477757    227.50949 
  508900    26608    299.69081   -499.20854   -2923268.8    23768.602   -2899500.2    512380.02   0.58217475    47.453958    47.453958    227.53453 
  509000    26608    297.05125    406.09429   -2922992.7    23559.257   -2899433.5    512476.29   0.58206539    47.455805    47.455805    227.55956 
  509100    26608     298.6592   -764.13454   -2922888.6    23686.784   -2899201.8    512822.84   0.58167205    47.469237    47.469237     227.5846 
  509200    26608    301.63597   -48.364054     -2923044    23922.873   -2899121.1    512946.52    0.5815318     47.47235     47.47235    227.60963 
  509300    26608    297.70618    78.403024   -2923078.1      23611.2   -2899466.9    512467.29   0.58207561    47.447559    47.447559    227.63466 
  509400    26608    299.46486   -17.333656   -2923253.6    23750.682   -2899502.9     512033.8    0.5825684     47.42488     47.42488     227.6597 
  509500    26608    299.61548   -116.11989   -2923107.3    23762.627   -2899344.7    512192.32    0.5823881    47.429612    47.429612    227.68473 
  509600    26608    302.84657   -1396.6739   -2923185.7    24018.886   -2899166.8    512844.59   0.58164739    47.457194    47.457194    227.70977 
  509700    26608    300.44848    452.33513   -2922993.3    23828.693   -2899164.6     513188.5   0.58125759    47.470495    47.470495     227.7348 
  509800    26608    299.22384   -950.90933   -2923159.7    23731.566   -2899428.1    513598.88   0.58079316    47.486861    47.486861    227.75984 
  509900    26608    298.35894   -42.682146   -2923265.1    23662.971   -2899602.1     513437.1   0.58097615    47.476773    47.476773    227.78487 
  510000    26608    298.75573    836.82214   -2923214.8    23694.441   -2899520.3    513072.13   0.58138943    47.457288    47.457288     227.8099 
  510100    26608    299.12384   -700.60437   -2923059.2    23723.636   -2899335.5    513232.15   0.58120816     47.46208     47.46208    227.83494 
  510200    26608    300.44198   -277.60961   -2923028.1    23828.177   -2899199.9    513183.51   0.58126325    47.457223    47.457223    227.85997 
  510300    26608    299.10526   -414.12676   -2922925.2    23722.162   -2899203.1    512926.63   0.58155435    47.442738    47.442738    227.88501 
  510400    26608    298.81912    976.62398   -2923244.6    23699.468   -2899545.1       512995   0.58147684    47.443295    47.443295    227.91004 
  510500    26608    298.85039   -987.61332   -2923437.7    23701.948   -2899735.8    513645.05   0.58074095    47.470737    47.470737    227.93507 
  510600    26608    298.34354    752.42239   -2923225.1     23661.75   -2899563.4    514222.72   0.58008855    47.494816    47.494816    227.96011 
  510700    26608    302.99479    897.69943     -2923383    24030.642   -2899352.3    514917.76   0.57930554    47.524293    47.524293    227.98514 
  510800    26608    301.88106    266.12365     -2923242    23942.311   -2899299.7    514842.09   0.57939069    47.518192    47.518192    228.01018 
  510900    26608    301.32815   -863.88016   -2923314.2     23898.46   -2899415.7    514828.89   0.57940554    47.514975    47.514975    228.03521 
  511000    26608    298.76198   -228.47736   -2923329.8    23694.936   -2899634.9    514309.83   0.57999031    47.488409    47.488409    228.06024 
  511100    26608    297.16012    275.50928   -2923151.3    23567.892   -2899583.4    513747.94   0.58062464    47.459856    47.459856    228.08528 
  511200    26608    301.84605   -1195.5786   -2923158.3    23939.535   -2899218.7     513856.4   0.58050209    47.462261    47.462261    228.11031 
  511300    26608    299.73582   -1356.0382   -2922995.4    23772.171   -2899223.2    514620.07   0.57964065     47.49491     47.49491    228.13535 
  511400    26608    302.14312   -15.589743   -2923335.8    23963.096   -2899372.7    514952.89   0.57926602    47.507659    47.507659    228.16038 
  511500    26608    298.39444    496.61222   -2923222.9    23665.786   -2899557.1    515178.67   0.57901216    47.515466    47.515466    228.18541 
  511600    26608    300.88362    4.6008704   -2923396.6    23863.204   -2899533.4    515266.93   0.57891298     47.51693     47.51693    228.21045 
  511700    26608    300.01443    541.81252   -2923265.8    23794.268   -2899471.5    515515.99   0.57863329    47.525806    47.525806    228.23548 
  511800    26608     303.1577   -1042.6886   -2923190.4    24043.562   -2899146.9     515861.3   0.57824596    47.539113    47.539113    228.26052 
  511900    26608    303.11123    -450.5066   -2923049.5    24039.877   -2899009.7    515534.64   0.57861236    47.521453    47.521453    228.28555 
  512000    26608    300.88752   -596.94265   -2923036.5    23863.514     -2899173    515978.54   0.57811457    47.539302    47.539302    228.31058 
  512100    26608     300.6693   -437.26303   -2923161.2    23846.207     -2899315    516458.99   0.57757677    47.558822    47.558822    228.33562 
  512200    26608    298.14724   -1545.2275   -2923012.3    23646.181   -2899366.1    516733.52   0.57726991    47.568853    47.568853    228.36065 
  512300    26608    299.78686    155.15715     -2923141     23776.22   -2899364.7    516667.28   0.57734392    47.563197    47.563197    228.38569 
  512400    26608    297.92486    786.84463   -2923024.8    23628.544   -2899396.3    516903.51   0.57708007    47.571462    47.571462    228.41072 
  512500    26608    300.41125   -42.360288   -2922955.4     23825.74   -2899129.7    517471.31   0.57644686    47.594975    47.594975    228.43575 
  512600    26608    299.94505   -302.74193   -2922748.3    23788.766   -2898959.5    517383.02   0.57654523    47.588306    47.588306    228.46079 
  512700    26608    301.99341   -2064.8935     -2923013    23951.222   -2899061.8     517294.7   0.57664367    47.581638    47.581638    228.48582 
  512800    26608     300.6904     -550.002   -2923170.8     23847.88   -2899322.9    517163.85   0.57678957    47.573013    47.573013    228.51086 
  512900    26608    300.70103    828.37206     -2923294    23848.723   -2899445.2    517271.85   0.57666914    47.575375    47.575375    228.53589 
  513000    26608    298.48252    -29.54507     -2923115    23672.772   -2899442.2    517487.49   0.57642884    47.582684    47.582684    228.56092 
  513100    26608    301.17155    754.26354   -2923167.9     23886.04   -2899281.8    517500.34   0.57641453    47.580669    47.580669    228.58596 
  513200    26608    303.35012   -311.38077     -2923049    24058.824   -2898990.1    517542.19   0.57636792    47.579988    47.579988    228.61099 
  513300    26608    301.25343   -848.61215   -2922937.5    23892.534     -2899045    517840.65   0.57603573    47.591099    47.591099    228.63603 
  513400    26608    302.00297   -579.45336   -2923180.3     23951.98   -2899228.3    517574.64   0.57633179    47.576269    47.576269    228.66106 
  513500    26608    298.91941    332.54185   -2923042.3    23707.422   -2899334.9    517295.37   0.57664293    47.560829    47.560829     228.6861 
  513600    26608    301.59144    785.43661   -2923229.6    23919.342   -2899310.3    517351.52   0.57658033    47.560807    47.560807    228.71113 
  513700    26608    299.35912   -203.48489   -2923062.7    23742.296   -2899320.4    517566.91   0.57634038    47.568103    47.568103    228.73616 
  513800    26608     301.2621   -55.913995   -2923304.8    23893.222   -2899411.6    517393.85   0.57653316    47.557548    47.557548     228.7612 
  513900    26608     298.2444    831.36931   -2923270.6    23653.886   -2899616.7    517556.05   0.57635248    47.562399    47.562399    228.78623 
  514000    26608    300.26891    685.58081     -2923291    23814.451   -2899476.5    517694.17   0.57619872    47.566143    47.566143    228.81127 
  514100    26608    300.03676    1064.9252   -2923059.9     23796.04   -2899263.8    517621.42    0.5762797    47.560199    47.560199     228.8363 
  514200    26608    300.76628   -822.37104     -2923100    23853.898   -2899246.1    518134.41   0.57570913    47.581158    47.581158    228.86133 
  514300    26608    301.06891    861.98478   -2923199.5      23877.9   -2899321.6    518710.14   0.57507014    47.604982    47.604982    228.88637 
  514400    26608     300.2016   -515.21329   -2923276.4    23809.113   -2899467.3    518520.31   0.57528067    47.593668    47.593668     228.9114 
  514500    26608    299.88212   -254.70781   -2923246.1    23783.775   -2899462.3    517917.03   0.57595077    47.563372    47.563372    228.93644 
  514600    26608    300.80011    383.78639   -2923020.4    23856.581   -2899163.8    517813.83   0.57606556    47.556033    47.556033    228.96147 
  514700    26608    302.08717    1265.0811   -2922981.6    23958.658     -2899023    517967.59   0.57589456    47.560493    47.560493     228.9865 
  514800    26608    300.97784   -320.17579   -2923042.6    23870.677   -2899171.9    518077.98   0.57577184    47.562961    47.562961    229.01154 
  514900    26608    300.22322    650.81084     -2923206    23810.828   -2899395.2    517441.19   0.57648041    47.531124    47.531124    229.03657 
  515000    26608    298.74162   -448.55523   -2923188.1    23693.321   -2899494.7    516864.53   0.57712359    47.502035    47.502035    229.06161 
  515100    26608    298.13142   -144.50405     -2923089    23644.926   -2899444.1    516759.43   0.57724097     47.49461     47.49461    229.08664 
  515200    26608     302.5959     249.5416   -2923148.4    23999.005   -2899149.4    516860.17   0.57712846    47.496644    47.496644    229.11167 
  515300    26608    300.19722    1724.7604   -2922856.4    23808.766   -2899047.6    516985.85   0.57698816    47.499823    47.499823    229.13671 
  515400    26608    300.88361    234.30246   -2922990.2    23863.204     -2899127    517997.98   0.57586076      47.5437      47.5437    229.16174 
  515500    26608    298.37599   -189.53155   -2922907.4    23664.323     -2899243    518533.17   0.57526641    47.565656    47.565656    229.18678 
  515600    26608    299.77776   -783.18337   -2923052.2    23775.498   -2899276.7    518663.78   0.57512155    47.569048    47.569048    229.21181 
  515700    26608    300.06514   -717.95798   -2923007.1     23798.29   -2899208.8    519300.16   0.57441675    47.595623    47.595623    229.23684 
  515800    26608    301.23798    936.53835   -2922967.6    23891.309   -2899076.3    519116.17   0.57462034    47.584593    47.584593    229.26188 
  515900    26608    302.36131   -457.05314   -2922952.1      23980.4   -2898971.7    518892.95   0.57486754    47.571764    47.571764    229.28691 
  516000    26608     301.2101    641.85354   -2923129.9    23889.097   -2899240.8    519144.65   0.57458882    47.580703    47.580703    229.31195 
  516100    26608    298.46806    1450.2722   -2923075.3    23671.625   -2899403.7    519094.47   0.57464437    47.575806    47.575806    229.33698 
  516200    26608    299.76499    665.71609   -2923092.4    23774.485   -2899317.9    518702.62   0.57507848    47.555251    47.555251    229.36201 
  516300    26608    302.31451     656.7348   -2923169.6    23976.689   -2899192.9    518835.65   0.57493103    47.558753    47.558753    229.38705 
  516400    26608    300.15578    496.53671   -2923097.4    23805.479     -2899292    518649.25   0.57513766    47.547614    47.547614    229.41208 
  516500    26608    296.79218   -1397.3456   -2923112.7    23538.711   -2899573.9    518262.99   0.57556631    47.527313    47.527313    229.43712 
  516600    26608    298.70841     1048.249   -2923236.7    23690.687     -2899546    517999.66    0.5758589    47.512645    47.512645    229.46215 
  516700    26608     299.7072   -79.184886   -2923149.8    23769.902   -2899379.9    517762.09   0.57612312    47.499157    47.499157    229.48718 
  516800    26608    301.36964    1339.1667   -2923078.4    23901.751   -2899176.6    517450.59   0.57646995    47.482277    47.482277    229.51222 
  516900    26608    301.88168    863.61344   -2922831.9    23942.361   -2898889.6    517813.82   0.57606558    47.496349    47.496349    229.53725 
  517000    26608    302.66016    894.65609   -2922644.9    24004.102   -2898640.8    518148.52   0.57569346    47.509106    47.509106    229.56229 
  517100    26608    302.45458    395.53956   -2922905.1    23987.798   -2898917.3    518444.39   0.57536492    47.520077    47.520077    229.58732 
  517200    26608    303.58841   -1030.3586   -2923200.8    24077.722     -2899123    518820.01   0.57494836    47.534697    47.534697    229.61236 
  517300    26608    301.66293    503.92905   -2923278.4    23925.012   -2899353.4    518793.35   0.57497791    47.530885    47.530885    229.63739 
  517400    26608    299.48079    529.92515   -2923234.9    23751.945     -2899483    518738.18   0.57503906    47.525767    47.525767    229.66242 
  517500    26608    298.39482   -317.89516     -2923102    23665.816   -2899436.1    519252.17   0.57446984    47.546715    47.546715    229.68746 
  517600    26608    301.61601    1232.7688   -2923125.3     23921.29     -2899204     519324.1   0.57439027    47.547418    47.547418    229.71249 
  517700    26608    300.34865    409.16862   -2922983.5    23820.775   -2899162.7    518931.62    0.5748247    47.526857    47.526857    229.73753 
  517800    26608    299.49139     10.24736   -2923224.7    23752.786   -2899471.9    518945.52   0.57480931    47.524904    47.524904    229.76256 
  517900    26608    298.24844    509.77418   -2923292.5    23654.207   -2899638.3    518719.79   0.57505944    47.511979    47.511979    229.78759 
  518000    26608    298.81898    252.04131   -2923231.6    23699.457   -2899532.1    518752.34   0.57502336    47.510882    47.510882    229.81263 
  518100    26608    300.43183    805.13487   -2923178.1    23827.372   -2899350.7    518896.37   0.57486375    47.514889    47.514889    229.83766 
  518200    26608    300.09222    262.94563     -2923040    23800.438   -2899239.5    519180.27   0.57454941    47.525297    47.525297     229.8627 
  518300    26608    301.25794    757.00262   -2923176.8    23892.892   -2899283.9    519228.63   0.57449589    47.524923    47.524923    229.88773 
  518400    26608    299.70095    299.96768   -2923140.4    23769.406     -2899371    519816.92   0.57384572    47.549249    47.549249    229.91276 
  518500    26608    299.82595    227.81432     -2923215     23779.32   -2899435.7    520609.84   0.57297172     47.58291     47.58291     229.9378 
  518600    26608    299.02438    73.851514   -2923179.3    23715.747   -2899463.6    520728.63   0.57284101    47.585749    47.585749    229.96283 
  518700    26608    299.16207    174.58337   -2923002.4    23726.667   -2899275.7    520727.09    0.5728427    47.583088    47.583088    229.98787 
  518800    26608    301.72264    308.94578   -2922956.9    23929.747   -2899027.2     520950.8   0.57259671    47.590718    47.590718     230.0129 
  518900    26608    300.69179    -679.1396   -2922980.2     23847.99   -2899132.3    520816.59   0.57274426    47.581998    47.581998    230.03793 
  519000    26608    300.90962    327.00945   -2923198.3    23865.266     -2899333    520921.86   0.57262852    47.584217    47.584217    230.06297 
  519100    26608    299.91594   -777.71997   -2923198.6    23786.457   -2899412.1    521058.68   0.57247816    47.587877    47.587877      230.088 
  519200    26608    299.50753    741.06335   -2923198.2    23754.066   -2899444.1    521143.22    0.5723853    47.589148    47.589148    230.11304 
  519300    26608    300.85375   -272.40321   -2923259.3    23860.835   -2899398.5    521363.59   0.57214335     47.59662     47.59662    230.13807 
  519400    26608    301.26605   -126.23989   -2923063.2    23893.535   -2899169.6    521588.56   0.57189658    47.604299    47.604299     230.1631 
  519500    26608    302.51239    2219.7551   -2922935.2    23992.382   -2898942.9     521522.2   0.57196935    47.598682    47.598682    230.18814 
  519600    26608    302.91884   -484.24661   -2923079.9    24024.618   -2899055.3    521821.18   0.57164164    47.609735    47.609735    230.21317 
  519700    26608     299.4673   -100.82481   -2923037.7    23750.875   -2899286.8    521983.07   0.57146434    47.614531    47.614531    230.23821 
  519800    26608    301.54298   -608.10362   -2923245.5    23915.498     -2899330    521730.57   0.57174092    47.600425    47.600425    230.26324 
  519900    26608    299.94322   -884.22405     -2923102     23788.62   -2899313.4    521762.15   0.57170632    47.599279    47.599279    230.28827 
  520000    26608     299.7321    449.77397   -2922998.7    23771.877   -2899226.8    521640.48   0.57183966    47.591142    47.591142    230.31331 
  520100    26608    301.47156   -285.57326   -2922996.6    23909.834   -2899086.8    521728.8