LAMMPS (2 Aug 2019)
# lammps code to simulate tension test on RVE of nanocomposite with crack
# crack needs to be initiated first
# system is already equilibrated
# delete some atoms from a region to intiate a crack
# 15 % functionalized cnt with -OH group
# no cnt fix during equilibration in MS
# load equilibrated structure

read_restart    restart.npt_equi
  restoring atom style charge from restart
  orthogonal box = (-0.819053 -0.145973 -0.209517) to (49.4 50.0731 100.229)
  2 by 2 by 7 MPI processor grid
  pair style reax/c stores no restart info
  26905 atoms
  read_restart CPU = 0.00833035 secs

# ReaxFF potential to define interatomic interactions

pair_style	reax/c control_file lgvdw yes
pair_coeff	* * ffield.reax.lg C C H O H C C C O O C C
Reading potential file ffield.reax.lg with DATE: 2012-01-06

neighbor	4 bin
neigh_modify	every 10 delay 0 check no

thermo 100
thermo_style custom step atoms temp press pe ke etotal vol density lx ly lz      #output variables

compute pnc_temp all temp
compute pnc_pe all pe/atom
compute pnc_stress all stress/atom pnc_temp pair bond
compute pnc_str all reduce sum c_pnc_stress[3]

variable tmpz equal "lz"
variable L0z equal ${tmpz}
variable L0z equal 100.438086964748
variable tmpx equal "lx"
variable L0x equal ${tmpx}
variable L0x equal 50.2190434823738
variable tmpy equal "ly"
variable L0y equal ${tmpy}
variable L0y equal 50.2190434823738

# define groups of atoms to delete

fix std all qeq/reax 1 0.0 10.0 1e-6 reax/c

region atoms_for_deletion block EDGE 16.5 EDGE EDGE 48.8642415 51.3642415              # NOTE: box size will change after equilibration
delete_atoms region atoms_for_deletion
Deleted 225 atoms, new total = 26680
reset_ids
Resetting atom IDs ...
Unused restart file global fix info:
  fix style: npt, fix ID: npt_equi
Neighbor list info ...
  update every 10 steps, delay 0 steps, check no
  max neighbors/atom: 2000, page size: 100000
  master list distance cutoff = 14
  ghost atom cutoff = 14
  binsize = 7, bins = 8 8 15
  2 neighbor lists, perpetual/occasional/extra = 2 0 0
  (1) pair reax/c, perpetual
      attributes: half, newton off, ghost
      pair build: half/bin/newtoff/ghost
      stencil: half/ghost/bin/3d/newtoff
      bin: standard
  (2) fix qeq/reax, perpetual, copy from (1)
      attributes: half, newton off, ghost
      pair build: copy
      stencil: none
      bin: none

reset_timestep 0
timestep 0.25
thermo_style custom step atoms temp press pe ke etotal vol density lx ly lz
fix 1 all npt temp 300.0 300.0 25.0 x 0.0 0.0 250.0 y 0.0 0.0 250.0 couple xy
fix 2 all deform 1 z erate 0.00001 units box
fix bd all reax/c/bonds 1000 bonds.reaxc
dump deform1 all custom 1000 dump.deform id type x y z

variable strainz equal "(lz-v_L0z)/v_L0z"
variable strainx equal "(lx-v_L0x)/v_L0x"
variable strainy equal "(ly-v_L0y)/v_L0y"
variable stressz equal "-pzz/10000"
variable p1 equal "v_stressz"
variable p2 equal "v_strainz"
variable p3 equal "v_strainx"
variable p4 equal "v_strainy"
fix 3 all print 100 "${p1} ${p2} ${p3} ${p4}" file pmma_pnc_funct_15_crack.txt screen no

run 600000
Per MPI rank memory allocation (min/avg/max) = 277.9 | 283.6 | 290.6 Mbytes
Step Atoms Temp Press PotEng KinEng TotEng Volume Density Lx Ly Lz 
       0    26680    300.32871   -553.69296   -2923024.5     23883.65   -2899140.8    253300.07    1.1804881    50.219043    50.219043    100.43809 
     100    26680    314.47977    834.55883   -2924613.4    25009.013   -2899604.4    253454.14    1.1797704    50.228036    50.228036     100.4632 
     200    26680    310.84971   -750.09237   -2925048.2    24720.333   -2900327.9    253618.23    1.1790071    50.238015    50.238015    100.48831 
     300    26680    304.55553   -787.61391   -2925250.6    24219.788   -2901030.8    253849.46    1.1779332    50.254634    50.254634    100.51342 
     400    26680    300.25689    830.82774     -2925527    23877.939   -2901649.1    254054.03    1.1769847      50.2686      50.2686    100.53853 
     500    26680    302.33265   -743.07444   -2926192.5    24043.013   -2902149.5    254253.12    1.1760631    50.282014    50.282014    100.56363 
     600    26680    301.15386    641.82268   -2926498.3     23949.27     -2902549    254307.27    1.1758126    50.281092    50.281092    100.58874 
     700    26680    301.27372   -2656.2833   -2926807.8    23958.802     -2902849    254056.94    1.1769712    50.250067    50.250067    100.61385 
     800    26680    298.76404    428.64935   -2926747.2     23759.22     -2902988    253931.55    1.1775524    50.231397    50.231397    100.63896 
     900    26680    300.12998    335.98157   -2926834.8    23867.846   -2902966.9    253898.97    1.1777035     50.22191     50.22191    100.66407 
    1000    26680    300.09425    1087.0458   -2926763.9    23865.005   -2902898.9    253995.76    1.1772547    50.225217    50.225217    100.68918 
    1100    26680    302.83862   -1525.3364   -2926940.4    24083.251   -2902857.2    254027.56    1.1771073      50.2221      50.2221    100.71429 
    1200    26680    298.21854   -458.01059   -2926651.2    23715.839   -2902935.4    254099.67    1.1767733    50.222967    50.222967     100.7394 
    1300    26680    300.83085    953.43121   -2926900.9    23923.583   -2902977.3    253978.87     1.177333    50.204771    50.204771    100.76451 
    1400    26680    300.32258   -792.29554   -2926983.6    23883.163   -2903100.5    253893.85    1.1777272    50.190115    50.190115    100.78962 
    1500    26680    298.67107   -896.70827   -2927045.7    23751.826   -2903293.8     253628.9    1.1789575    50.157673    50.157673    100.81473 
    1600    26680     299.7489   -1366.3134   -2927224.7    23837.541   -2903387.1    253662.79       1.1788    50.154777    50.154777    100.83984 
    1700    26680    298.37962     1325.064   -2927222.8    23728.649   -2903494.2    253655.69     1.178833    50.147833    50.147833    100.86495 
    1800    26680    302.51154    535.58871   -2927555.4     24057.24   -2903498.1    254078.81    1.1768699    50.183395    50.183395    100.89006 
    1900    26680    300.40117    1408.1185   -2927291.5    23889.412   -2903402.1     254249.8    1.1760784    50.194033    50.194033    100.91517 
    2000    26680    301.18063    1104.2658     -2927128    23951.399   -2903176.6    254297.29    1.1758588    50.192476    50.192476    100.94028 
    2100    26680    299.59433   -2218.8274   -2927047.9    23825.248   -2903222.7    254496.59    1.1749379    50.205897    50.205897    100.96539 
    2200    26680    297.38545    470.82221   -2927126.4    23649.587   -2903476.8    254727.61    1.1738724    50.222434    50.222434     100.9905 
    2300    26680    298.03486    3005.2317   -2927250.8    23701.231   -2903549.6    254816.62    1.1734623    50.224965    50.224965    101.01561 
    2400    26680    299.82556    447.92105   -2927402.8    23843.637   -2903559.1    254927.41    1.1729524    50.229639    50.229639    101.04072 
    2500    26680    300.70059    782.24722   -2927506.9    23913.224   -2903593.7    254904.55    1.1730576    50.221147    50.221147    101.06583 
    2600    26680    301.72358   -698.68154   -2927430.5    23994.577   -2903435.9    254744.67    1.1737937     50.19916     50.19916    101.09093 
    2700    26680    303.76718   -834.47667   -2927349.7    24157.095   -2903192.6    254763.08    1.1737089     50.19474     50.19474    101.11604 
    2800    26680    298.29877   -920.35616   -2926992.5    23722.219   -2903270.2    254817.69    1.1734574    50.193888    50.193888    101.14115 
    2900    26680    297.59388   -1917.1865   -2927126.6    23666.163   -2903460.4    255115.03    1.1720897    50.216931    50.216931    101.16626 
    3000    26680    299.67677     610.8122   -2927426.5    23831.804   -2903594.7    255395.71    1.1708016    50.238314    50.238314    101.19137 
    3100    26680    297.21742     660.2674   -2927333.9    23636.225   -2903697.6    255529.52    1.1701885    50.245239    50.245239    101.21648 
    3200    26680      297.914   -1980.0634   -2927477.8     23691.62   -2903786.2    255672.92    1.1695322    50.253103    50.253103    101.24159 
    3300    26680    299.93925   -676.04548   -2927423.2    23852.679   -2903570.5    255549.89    1.1700952    50.234782    50.234782     101.2667 
    3400    26680    300.41115    291.18647   -2927236.8    23890.206   -2903346.6    255545.33    1.1701161    50.228106    50.228106    101.29181 
    3500    26680    301.64399   -1011.4841   -2927303.6    23988.248   -2903315.3    255422.58    1.1706784    50.209819    50.209819    101.31692 
    3600    26680    299.95672    2825.4049   -2927377.6    23854.067   -2903523.5    255247.32    1.1714823    50.186371    50.186371    101.34203 
    3700    26680    302.53748   -1436.0586   -2927715.6    24059.302   -2903656.3    255152.15    1.1719192    50.170799    50.170799    101.36714 
    3800    26680    302.29257   -423.79797   -2927753.1    24039.826   -2903713.3    254980.76    1.1727069    50.147735    50.147735    101.39225 
    3900    26680    299.74052   -297.62303     -2927570    23836.874   -2903733.1     254595.6    1.1744811    50.103642    50.103642    101.41736 
    4000    26680    299.49796    1013.1362   -2927599.7    23817.585   -2903782.1    254417.75    1.1753021     50.07994     50.07994    101.44247 
    4100    26680    301.62423    561.47022   -2927776.8    23986.676   -2903790.1    254579.27    1.1745564    50.089636    50.089636    101.46758 
    4200    26680    299.76323    404.37982   -2927546.2     23838.68   -2903707.5    254864.43    1.1732422    50.111481    50.111481    101.49269 
    4300    26680    299.98174    1229.2705   -2927432.9    23856.057   -2903576.8    255144.21    1.1719557    50.132778    50.132778     101.5178 
    4400    26680    302.76949   -201.91762   -2927694.6    24077.753   -2903616.9    255315.72    1.1711684    50.143424    50.143424    101.54291 
    4500    26680    299.70822   -1134.0022   -2927685.9    23834.306   -2903851.6    255339.31    1.1710602    50.139541    50.139541    101.56802 
    4600    26680    300.07791    192.04079   -2927788.3    23863.705   -2903924.5    255179.46    1.1717938     50.11765     50.11765    101.59312 
    4700    26680    300.64954   -744.02466   -2927665.2    23909.164     -2903756     255201.9    1.1716908     50.11366     50.11366    101.61823 
    4800    26680    299.59289   -344.39489   -2927295.4    23825.134   -2903470.3    255155.45     1.171904    50.102911    50.102911    101.64334 
    4900    26680    299.29855    739.78898     -2927245    23801.726   -2903443.2    255130.98    1.1720164    50.094321    50.094321    101.66845 
    5000    26680    300.83345   -3030.8032   -2927509.9    23923.789   -2903586.2    255063.63    1.1723259    50.081524    50.081524    101.69356 
    5100    26680    300.72002    1475.5355   -2927590.8    23914.769   -2903676.1    255260.92    1.1714198    50.094705    50.094705    101.71867 
    5200    26680    299.48035    790.48901   -2927498.6    23816.185   -2903682.4    255462.83     1.170494    50.108329    50.108329    101.74378 
    5300    26680     300.8369   -1063.8038   -2927547.5    23924.064   -2903623.5    255563.31    1.1700338    50.111999    50.111999    101.76889 
    5400    26680    300.80509   -988.78013   -2927604.8    23921.534   -2903683.3    255668.14     1.169554    50.116094    50.116094      101.794 
    5500    26680    297.62336   -140.52815   -2927528.6    23668.507   -2903860.1    255869.82    1.1686322    50.129674    50.129674    101.81911 
    5600    26680    298.83255     1183.704   -2927627.9    23764.668   -2903863.2    256107.56    1.1675473    50.146775    50.146775    101.84422 
    5700    26680    298.35211   -2182.0942   -2927539.8    23726.461   -2903813.3    256321.57    1.1665725    50.161539    50.161539    101.86933 
    5800    26680    301.13249    521.07765     -2927629    23947.571   -2903681.4    256357.99    1.1664068    50.158921    50.158921    101.89444 
    5900    26680    299.52463   -2453.2047   -2927341.4    23819.705   -2903521.7    256380.65    1.1663037    50.154959    50.154959    101.91955 
    6000    26680    302.55152   -455.81133   -2927501.1    24060.419   -2903440.7    256202.96    1.1671126      50.1314      50.1314    101.94466 
    6100    26680    300.69913   -400.80947   -2927574.8    23913.108   -2903661.7    256158.69    1.1673143    50.120896    50.120896    101.96977 
    6200    26680    298.18549   -1020.2453   -2927612.7    23713.211   -2903899.5    256112.74    1.1675237    50.110232    50.110232    101.99488 
    6300    26680    300.82552   -1391.5709   -2927761.3    23923.159   -2903838.2    256056.18    1.1677816    50.098532    50.098532    102.01999 
    6400    26680    300.47248    102.63997     -2927644    23895.084     -2903749    256182.36    1.1672065    50.104709    50.104709     102.0451 
    6500    26680     303.4642   -115.57995   -2927740.5        24133   -2903607.5    256388.23    1.1662692    50.118671    50.118671    102.07021 
    6600    26680    299.87013   -801.66587   -2927449.3    23847.181   -2903602.2    256372.84    1.1663392    50.111004    50.111004    102.09532 
    6700    26680    300.15198    548.94923   -2927569.2    23869.595   -2903699.6     256163.2    1.1672937    50.084353    50.084353    102.12042 
    6800    26680    298.63538   -853.11122   -2927632.6    23748.988   -2903883.6    256122.17    1.1674807    50.074186    50.074186    102.14553 
    6900    26680     297.9138    -3302.074   -2927669.4    23691.605   -2903977.8    256179.99    1.1672173    50.073683    50.073683    102.17064 
    7000    26680    297.54052     1008.474   -2927725.5    23661.919   -2904063.6    256106.32     1.167553    50.060331    50.060331    102.19575 
    7100    26680    298.93709    343.82442   -2927607.8    23772.982   -2903834.8    256188.96    1.1671764    50.062258    50.062258    102.22086 
    7200    26680    299.60597       185.45   -2927454.9    23826.174   -2903628.7    256425.17    1.1661012    50.079181    50.079181    102.24597 
    7300    26680    301.64368   -406.63491   -2927627.7    23988.223   -2903639.4    256510.51    1.1657133    50.081365    50.081365    102.27108 
    7400    26680    298.27205     172.9369   -2927615.7    23720.094   -2903895.6    256382.38    1.1662958     50.06271     50.06271    102.29619 
    7500    26680    299.06082   -842.08825   -2927756.4    23782.821   -2903973.6    256277.99    1.1667709    50.046376    50.046376     102.3213 
    7600    26680    298.47809   -349.91147   -2927596.7    23736.479   -2903860.2    256561.56    1.1654813    50.067913    50.067913    102.34641 
    7700    26680    302.23131    816.26922   -2927758.7    24034.954   -2903723.7    256728.37     1.164724    50.078044    50.078044    102.37152 
    7800    26680    300.93105    -769.8558   -2927586.6    23931.551   -2903655.1    256756.04    1.1645985    50.074602    50.074602    102.39663 
    7900    26680    300.51645   -430.67809   -2927582.5     23898.58   -2903683.9    256651.75    1.1650717    50.058294    50.058294    102.42174 
    8000    26680    301.83559    -2457.659   -2927760.3    24003.485   -2903756.8    256705.01      1.16483    50.057351    50.057351    102.44685 
    8100    26680    300.26362   -1753.0911   -2927720.7    23878.474   -2903842.2    256598.27    1.1653146    50.040812    50.040812    102.47196 
    8200    26680    300.53817   -530.21936   -2927892.8    23900.308   -2903992.5     256556.5    1.1655043    50.030609    50.030609    102.49707 
    8300    26680    297.81875   -608.03333   -2927732.8    23684.045   -2904048.7     256779.2    1.1644935    50.046189    50.046189    102.52218 
    8400    26680    300.74981   -2086.0006   -2927922.5    23917.138   -2904005.4    256938.16     1.163773    50.055548    50.055548    102.54729 
    8500    26680    303.31757   -780.88725   -2927770.6    24121.339   -2903649.2    256939.78    1.1637657    50.049578    50.049578     102.5724 
    8600    26680    300.99134    -1237.812   -2927554.9    23936.346   -2903618.5    257246.41    1.1623785    50.073305    50.073305    102.59751 
    8700    26680    301.11861   -983.20203   -2927727.5    23946.467   -2903781.1     257550.7    1.1610052    50.096782    50.096782    102.62262 
    8800    26680    301.40521   -2000.4166   -2927926.5    23969.259   -2903957.2    257596.02    1.1608009    50.095061    50.095061    102.64772 
    8900    26680     300.1157   -921.28123   -2927873.3    23866.711   -2904006.6    257681.57    1.1604156    50.097252    50.097252    102.67283 
    9000    26680      299.201   -1845.5846   -2927826.4    23793.969   -2904032.4    257651.41    1.1605514    50.088196    50.088196    102.69794 
    9100    26680    299.20993    653.03371   -2927778.4    23794.679   -2903983.7    257472.53    1.1613577    50.064685    50.064685    102.72305 
    9200    26680    300.03897    1052.2872   -2927778.2    23860.608   -2903917.6    257556.84    1.1609776    50.066762    50.066762    102.74816 
    9300    26680    299.39245   -1678.8827   -2927702.8    23809.194   -2903893.7    257640.76    1.1605994    50.068801    50.068801    102.77327 
    9400    26680     298.3889    78.807202   -2927754.2    23729.386   -2904024.8     257467.9    1.1613786    50.045889    50.045889    102.79838 
    9500    26680    296.76688   -1432.3339   -2927830.2    23600.396   -2904229.8    257627.24    1.1606603     50.05526     50.05526    102.82349 
    9600    26680     297.4818    954.24575   -2927762.9    23657.249   -2904105.6    257739.27    1.1601558     50.06003     50.06003     102.8486 
    9700    26680    299.79499    638.46078   -2927615.7    23841.206   -2903774.5    257730.63    1.1601947    50.053081    50.053081    102.87371 
    9800    26680    301.97147    1615.0472   -2927710.8    24014.291   -2903696.5    257773.04    1.1600038    50.051091    50.051091    102.89882 
    9900    26680    300.19344    414.87136   -2927690.4    23872.892   -2903817.5    257850.93    1.1596534    50.052545    50.052545    102.92393 
   10000    26680     301.3193   -4441.9398   -2928003.4    23962.427     -2904041    257906.21    1.1594048    50.051806    50.051806    102.94904 
   10100    26680     298.8344    162.01773     -2927912    23764.815   -2904147.2    257917.03    1.1593562    50.046753    50.046753    102.97415 
   10200    26680    300.41664   -550.14204   -2927971.7    23890.643   -2904081.1    257950.11    1.1592075    50.043862    50.043862    102.99926 
   10300    26680    300.47365   -2457.4724   -2927849.7    23895.176   -2903954.5    257985.59    1.1590481    50.041204    50.041204    103.02437 
   10400    26680    300.15557     303.3337   -2927805.3    23869.881   -2903935.4    257784.85    1.1599507    50.015636    50.015636    103.04948 
   10500    26680    299.19392    -1870.547   -2928051.7    23793.406   -2904258.3    257524.74    1.1611223    49.984307    49.984307    103.07459 
   10600    26680    297.82762    226.63533   -2928002.8    23684.751     -2904318    257286.01    1.1621996    49.955049    49.955049     103.0997 
   10700    26680    299.34536   -638.07557   -2927878.8    23805.449   -2904073.3     257316.8    1.1620606    49.951956    49.951956    103.12481 
   10800    26680     299.0508   -1861.4425   -2927715.4    23782.024   -2903933.3    257155.19    1.1627908    49.930189    49.930189    103.14992 
   10900    26680    297.79592   -1990.9833   -2927641.1     23682.23   -2903958.8    257126.02    1.1629228    49.921281    49.921281    103.17502 
   11000    26680    299.36247   -2245.7462   -2927913.9     23806.81   -2904107.1    257088.09    1.1630943    49.911526    49.911526    103.20013 
   11100    26680     296.5938    2742.9159   -2928001.2    23586.631   -2904414.6       257460    1.1614142     49.94154     49.94154    103.22524 
   11200    26680    298.50852   -51.583267   -2928093.1      23738.9   -2904354.2     257811.9     1.159829     49.96958     49.96958    103.25035 
   11300    26680    298.83133   -302.16198   -2927906.1    23764.571   -2904141.5    257998.83    1.1589886    49.981616    49.981616    103.27546 
   11400    26680    303.88309   -1004.2652   -2928177.4    24166.312   -2904011.1    258094.33    1.1585598    49.984789    49.984789    103.30057 
   11500    26680    300.38623   -3140.8839   -2927882.3    23888.224     -2903994    258124.24    1.1584255    49.981612    49.981612    103.32568 
   11600    26680    298.65696   -421.40894   -2927774.1    23750.704   -2904023.4    258137.35    1.1583667    49.976809    49.976809    103.35079 
   11700    26680     299.9745    1020.0933   -2927854.4    23855.482   -2903998.9    258099.07    1.1585385    49.967033    49.967033     103.3759 
   11800    26680       301.25    756.90211   -2927797.9    23956.916     -2903841    258011.15    1.1589333    49.952456    49.952456    103.40101 
   11900    26680    302.01826    123.11745   -2927742.2    24018.011   -2903724.2    257910.68    1.1593847    49.936667    49.936667    103.42612 
   12000    26680    303.49184   -1881.1438   -2927930.5    24135.198   -2903795.3    258128.83    1.1584049    49.951717    49.951717    103.45123 
   12100    26680    299.15348    86.233733   -2927896.1     23790.19   -2904105.9    258301.43    1.1576308    49.962352    49.962352    103.47634 
   12200    26680    297.43239    254.69206   -2927732.1     23653.32   -2904078.8    258321.01    1.1575431    49.958185    49.958185    103.50145 
   12300    26680    300.85788    462.43016   -2927788.7    23925.733   -2903862.9    258085.07    1.1586013    49.929309    49.929309    103.52656 
   12400    26680    300.43769   -1717.0848   -2927751.5    23892.317   -2903859.2    258325.05     1.157525     49.94646     49.94646    103.55167 
   12500    26680     299.5792    1093.0071   -2927838.8    23824.045   -2904014.8    258399.08    1.1571934    49.947561    49.947561    103.57678 
   12600    26680    299.17867    166.73523   -2927932.5    23792.193   -2904140.3    258468.52    1.1568825    49.948218    49.948218    103.60189 
   12700    26680    298.72417    43.659421   -2927961.7    23756.049   -2904205.6     258218.9    1.1580008    49.918044    49.918044      103.627 
   12800    26680    297.51842    1763.3334     -2927868    23660.162   -2904207.8    257922.89    1.1593299     49.88338     49.88338    103.65211 
   12900    26680    298.97788    33.898544   -2927802.3    23776.225   -2904026.1    257802.56     1.159871    49.865704    49.865704    103.67722 
   13000    26680    300.49081   -965.44303   -2927747.9    23896.541   -2903851.4    257709.69     1.160289    49.850685    49.850685    103.70232 
   13100    26680    300.70294    1604.0706   -2927715.3    23913.411   -2903801.9    257605.51    1.1607582    49.834575    49.834575    103.72743 
   13200    26680    299.20124    65.270435   -2927832.5    23793.988   -2904038.5    257720.57      1.16024    49.839671    49.839671    103.75254 
   13300    26680    298.07611   -864.60265   -2927867.4    23704.512   -2904162.9    257952.48    1.1591969    49.856057    49.856057    103.77765 
   13400    26680    299.66856    69.668337   -2927899.5    23831.151   -2904068.3    258237.11    1.1579192    49.877522    49.877522    103.80276 
   13500    26680    297.32308    1589.0938   -2927565.6    23644.627     -2903921    258487.67    1.1567968    49.895679    49.895679    103.82787 
   13600    26680    299.91549   -1305.5203   -2927675.3    23850.789   -2903824.5    258726.82    1.1557275     49.91272     49.91272    103.85298 
   13700    26680    300.13507   -1441.4868     -2927718    23868.251   -2903849.8    258599.13    1.1562982    49.894371    49.894371    103.87809 
   13800    26680    301.34816    1622.8981     -2927918    23964.722   -2903953.3    258426.64      1.15707    49.871701    49.871701     103.9032 
   13900    26680    299.46293   -351.93314   -2927825.7    23814.799   -2904010.9    258448.83    1.1569706    49.867816    49.867816    103.92831 
   14000    26680    301.24483   -3604.8806   -2927916.9    23956.505   -2903960.4    258312.49    1.1575813     49.84864     49.84864    103.95342 
   14100    26680    302.82789   -418.54833   -2927941.1    24082.398   -2903858.7    258163.45    1.1582496    49.828239    49.828239    103.97853 
   14200    26680     300.9983   -485.54758   -2927826.3    23936.899   -2903889.4    258069.42    1.1586716     49.81315     49.81315    104.00364 
   14300    26680    300.38781   -882.73941   -2927944.5     23888.35   -2904056.2    257798.98    1.1598871    49.781034    49.781034    104.02875 
   14400    26680    300.60479   -875.84014   -2928088.5    23905.605   -2904182.9    257689.07    1.1603818    49.764415    49.764415    104.05386 
   14500    26680    301.40872   -1442.6465   -2928233.7    23969.538   -2904264.2    257822.49    1.1597813    49.771291    49.771291    104.07897 
   14600    26680    297.77336   -1895.7318   -2927973.5    23680.436   -2904293.1    257993.92    1.1590107    49.781831    49.781831    104.10408 
   14700    26680    299.50026   -195.69123   -2927824.1    23817.768   -2904006.3     258167.6     1.158231     49.79258     49.79258    104.12919 
   14800    26680    300.16222    528.05436   -2927754.2     23870.41   -2903883.7    258109.19     1.158493    49.780946    49.780946     104.1543 
   14900    26680    301.56293    -1181.791   -2927905.2    23981.801   -2903923.4    258112.26    1.1584793    49.775242    49.775242    104.17941 
   15000    26680    298.38941    1105.3721   -2927836.2    23729.427   -2904106.8    258179.31    1.1581784    49.775709    49.775709    104.20452 
   15100    26680    297.46864   -3554.7436   -2927951.9    23656.203   -2904295.7    258257.34    1.1578285    49.777232    49.777232    104.22962 
   15200    26680    296.66287    -1089.789   -2927975.2    23592.124     -2904383    258301.92    1.1576287    49.775533    49.775533    104.25473 
   15300    26680    301.38361   -819.49861   -2927990.9    23967.541   -2904023.4    258350.27     1.157412    49.774199    49.774199    104.27984 
   15400    26680    302.02361   -134.57083     -2927982    24018.437   -2903963.5    258256.23    1.1578335    49.759148    49.759148    104.30495 
   15500    26680    299.57769   -2111.8537   -2927942.6    23823.926   -2904118.7    258289.51    1.1576843    49.756365    49.756365    104.33006 
   15600    26680    298.34296   -635.16972     -2927936    23725.733   -2904210.2    258351.92    1.1574046    49.756389    49.756389    104.35517 
   15700    26680    299.32032   -1807.3854   -2927902.8    23803.458   -2904099.3    258522.98    1.1566388    49.766872    49.766872    104.38028 
   15800    26680    302.41367   -195.18702   -2927802.3    24049.457   -2903752.8    258661.82    1.1560179    49.774248    49.774248    104.40539 
   15900    26680    299.68359   -1352.3877   -2927655.2    23832.347   -2903822.9    258774.82    1.1555131    49.779133    49.779133     104.4305 
   16000    26680     299.0078    1158.6753   -2927795.5    23778.605   -2904016.9    258372.84    1.1573109    49.734476    49.734476    104.45561 
   16100    26680    299.34272   -651.83094   -2927843.5    23805.239   -2904038.3    258104.77    1.1585129    49.702694    49.702694    104.48072 
   16200    26680    301.59028    961.06035   -2927862.7    23983.976   -2903878.7    257916.31    1.1593594    49.678577    49.678577    104.50583 
   16300    26680    301.79937     1319.229   -2927696.6    24000.604     -2903696    258023.54    1.1588776    49.682934    49.682934    104.53094 
   16400    26680    304.26271    39.426725   -2927654.1    24196.501   -2903457.6    258125.22    1.1584211    49.686756    49.686756    104.55605 
   16500    26680     301.6101    1180.0457     -2927626    23985.552   -2903640.5    258099.06    1.1585385    49.678273    49.678273    104.58116 
   16600    26680    300.83015    -160.9718   -2927786.6    23923.527   -2903863.1    258189.16    1.1581342    49.680979    49.680979    104.60627 
   16700    26680    301.50312   -768.79696   -2927881.7    23977.045   -2903904.7    258011.22    1.1589329    49.657898    49.657898    104.63138 
   16800    26680    302.58753   -1883.5768   -2928028.3    24063.283     -2903965    258244.98    1.1578839    49.674428    49.674428    104.65649 
   16900    26680    299.10565   -1045.0428   -2927924.6    23786.386   -2904138.2    258415.45    1.1571201     49.68486     49.68486     104.6816 
   17000    26680     298.4388   -2021.6703   -2928088.7    23733.355   -2904355.4    258507.08    1.1567099    49.687709    49.687709    104.70671 
   17100    26680    299.14154   -125.46408   -2928074.1     23789.24   -2904284.9    258284.57    1.1577064    49.660366    49.660366    104.73182 
   17200    26680    301.02702   -612.25453   -2927839.3    23939.183   -2903900.1    258246.01    1.1578793    49.650707    49.650707    104.75692 
   17300    26680    299.47096   -1320.1474   -2927647.7    23815.437   -2903832.3    258226.48    1.1579668    49.642881    49.642881    104.78203 
   17400    26680    301.61097    1593.0108   -2927969.3    23985.622   -2903983.7    258353.38    1.1573981    49.649129    49.649129    104.80714 
   17500    26680    298.26939    2334.4097   -2927882.4    23719.883   -2904162.5    258322.77    1.1575352    49.640241    49.640241    104.83225 
   17600    26680    297.45754    -204.2806   -2927770.5     23655.32   -2904115.2    258391.41    1.1572277    49.640892    49.640892    104.85736 
   17700    26680    302.78516   -487.82995   -2928060.1    24078.999   -2903981.1     258402.6    1.1571776    49.636024    49.636024    104.88247 
   17800    26680    299.07497   -25.527691     -2927639    23783.947   -2903855.1    258624.64    1.1561841    49.651402    49.651402    104.90758 
   17900    26680    301.04556    179.79492   -2927536.5    23940.657   -2903595.8    258817.12    1.1553243    49.663931    49.663931    104.93269 
   18000    26680    301.22138   -258.83554     -2927563     23954.64   -2903608.4     258782.9    1.1554771    49.654707    49.654707     104.9578 
   18100    26680    300.05215    611.06674   -2927678.9    23861.656   -2903817.3    258524.57    1.1566317    49.623981    49.623981    104.98291 
   18200    26680    300.39001    1657.1311   -2927873.2    23888.525   -2903984.7    258416.42    1.1571157    49.607669    49.607669    105.00802 
   18300    26680    301.37994   -2671.9698   -2927890.4    23967.249   -2903923.2    258528.17    1.1566156    49.612462    49.612462    105.03313 
   18400    26680    300.76396    1240.7527   -2927788.5    23918.264   -2903870.2    258173.19    1.1582059    49.572465    49.572465    105.05824 
   18500    26680    299.80125   -2258.1531   -2927784.6    23841.704   -2903942.9    257915.36    1.1593637    49.541786    49.541786    105.08335 
   18600    26680    297.95871    690.40735   -2928029.2    23695.175     -2904334    257687.54    1.1603887    49.513984    49.513984    105.10846 
   18700    26680    296.91846    515.12543   -2927994.8     23612.45   -2904382.4    257700.65    1.1603296    49.509331    49.509331    105.13357 
   18800    26680    298.16832    -1294.068   -2927829.5    23711.845   -2904117.6    257791.85    1.1599192    49.512178    49.512178    105.15868 
   18900    26680    302.00835    420.19983     -2927941    24017.223   -2903923.7    257678.07    1.1604313    49.495342    49.495342    105.18379 
   19000    26680    302.23725    581.80892   -2927974.9    24035.427   -2903939.4    257721.26    1.1602368    49.493583    49.493583     105.2089 
   19100    26680    300.55561    45.019807   -2927947.7    23901.694     -2904046    257738.11     1.160161    49.489295    49.489295    105.23401 
   19200    26680    297.82273   -1949.3243   -2927815.7    23684.362   -2904131.3    258020.94    1.1588893    49.510535    49.510535    105.25912 
   19300    26680    298.51883    2117.8259   -2927829.7    23739.719     -2904090     258294.5    1.1576619    49.530866    49.530866    105.28422 
   19400    26680    299.25344   -1095.4244   -2927617.8    23798.139   -2903819.6    258638.75    1.1561211    49.557953    49.557953    105.30933 
   19500    26680     300.2455   -2738.4297   -2927624.4    23877.033   -2903747.4    258939.66    1.1547776    49.580863    49.580863    105.33444 
   19600    26680    300.92343    915.28289   -2927821.3    23930.945   -2903890.4    259133.13    1.1539154    49.593471    49.593471    105.35955 
   19700    26680    300.12697   -345.60427   -2927937.4    23867.606   -2904069.8    259460.84    1.1524579    49.618908    49.618908    105.38466 
   19800    26680    301.57137   -143.56406   -2928101.1    23982.472   -2904118.6    259456.37    1.1524778     49.61257     49.61257    105.40977 
   19900    26680    298.36766    -1137.146   -2927827.7    23727.697     -2904100    259432.48    1.1525839    49.604379    49.604379    105.43488 
   20000    26680    298.84401   -267.60927   -2927801.2     23765.58   -2904035.7    259324.89    1.1530621    49.588188    49.588188    105.45999 
   20100    26680    300.96187   -1572.3994   -2927866.5    23934.002   -2903932.5    259013.27    1.1544494    49.552486    49.552486     105.4851 
   20200    26680    299.36704    -335.9417   -2927602.8    23807.173   -2903795.7    258407.27    1.1571567    49.488594    49.488594    105.51021 
   20300    26680    301.17654   -659.93133   -2927554.4    23951.074   -2903603.3    258307.52    1.1576035    49.473156    49.473156    105.53532 
   20400    26680    301.56283   -51.122737   -2927572.4    23981.793   -2903590.7    258421.53    1.1570928    49.478187    49.478187    105.56043 
   20500    26680    301.31422   -932.87142   -2927883.3    23962.023   -2903921.2    258432.67     1.157043    49.473369    49.473369    105.58554 
   20600    26680    298.79108   -1126.6589   -2927806.1     23761.37   -2904044.8     258534.4    1.1565877    49.477223    49.477223    105.61065 
   20700    26680    300.69893   -2851.5047   -2927989.2    23913.092   -2904076.1    258501.41    1.1567353    49.468185    49.468185    105.63576 
   20800    26680    300.70297    162.08391   -2927880.4    23913.413     -2903967     258664.6    1.1560055    49.477918    49.477918    105.66087 
   20900    26680     301.8955   -112.85879     -2927685    24008.249   -2903676.7    258732.42    1.1557025    49.478524    49.478524    105.68598 
   21000    26680     301.0577   -394.09449   -2927586.2    23941.623   -2903644.6    259092.01    1.1540985    49.507015    49.507015    105.71109 
   21100    26680    299.49174   -729.77549   -2927603.3     23817.09   -2903786.2    259430.56    1.1525924    49.533467    49.533467     105.7362 
   21200    26680    300.64281   -3119.8334   -2927780.1    23908.629   -2903871.5    259604.41    1.1518206    49.544178    49.544178    105.76131 
   21300    26680    298.53917   -987.05047   -2927645.8    23741.337   -2903904.4       259532     1.152142    49.531389    49.531389    105.78642 
   21400    26680    299.29985   -938.36443   -2927681.8     23801.83     -2903880    259559.46    1.1520201    49.528132    49.528132    105.81152 
   21500    26680    300.20739    985.82726   -2927565.3    23874.002   -2903691.3    259688.23    1.1514488    49.534538    49.534538    105.83663 
   21600    26680    303.20983   -2514.6771   -2927425.5    24112.771   -2903312.7     259568.6    1.1519795    49.517254    49.517254    105.86174 
   21700    26680    302.48038    2326.3444   -2927444.6    24054.762   -2903389.8    259374.31    1.1528424    49.492849    49.492849    105.88685 
   21800    26680    301.46622    697.15983   -2927596.9    23974.111   -2903622.8     259352.1    1.1529411    49.484864    49.484864    105.91196 
   21900    26680    299.82897   -2104.4008   -2927725.2    23843.908   -2903881.3    259644.96    1.1516407    49.506926    49.506926    105.93707 
   22000    26680    298.96314    -1749.364     -2927751    23775.053   -2903975.9    259685.41    1.1514613    49.504916    49.504916    105.96218 
   22100    26680    299.01376   -511.18718   -2927707.4    23779.078   -2903928.3    259810.84    1.1509054    49.511004    49.511004    105.98729 
   22200    26680    302.15112   -2493.9504   -2927704.3    24028.578   -2903675.8    259857.98    1.1506966    49.509631    49.509631     106.0124 
   22300    26680    299.82824    174.74544   -2927494.7     23843.85   -2903650.8    259724.33    1.1512887    49.491038    49.491038    106.03751 
   22400    26680    300.55751    -161.2923   -2927808.5    23901.845   -2903906.7    259714.43    1.1513326    49.484236    49.484236    106.06262 
   22500    26680    298.49295    -1074.611   -2927866.8    23737.661   -2904129.1    259801.18    1.1509482    49.486642    49.486642    106.08773 
   22600    26680    300.66836    -1500.833   -2927925.6    23910.661   -2904014.9    259801.97    1.1509447    49.480861    49.480861    106.11284 
   22700    26680    301.05531   -1299.0309   -2927714.5    23941.433   -2903773.1    259914.78    1.1504452    49.485749    49.485749    106.13795 
   22800    26680    301.60384   -139.45821   -2927614.3    23985.055   -2903629.2    259857.26    1.1506998    49.474421    49.474421    106.16306 
   22900    26680    300.41286    1960.0546   -2927550.6    23890.342   -2903660.3    259945.93    1.1503073     49.47701     49.47701    106.18817 
   23000    26680    300.92416   -1921.7847   -2927860.3    23931.003   -2903929.3    259979.97    1.1501567      49.4744      49.4744    106.21328 
   23100    26680    298.30485    -3827.735   -2927793.7    23722.703     -2904071    259860.79    1.1506842    49.457213    49.457213    106.23839 
   23200    26680    298.25725    1678.7412   -2927744.4    23718.917   -2904025.5    259745.82    1.1511935    49.440429    49.440429     106.2635 
   23300    26680    301.51988   -62.810556   -2927931.5    23978.378   -2903953.1    259588.39    1.1518917    49.419606    49.419606    106.28861 
   23400    26680    299.41883    -1441.337   -2927843.2    23811.292   -2904031.9    259336.12    1.1530122    49.389753    49.389753    106.31372 
   23500    26680    297.82247   -769.02912   -2927950.3    23684.341   -2904265.9    259059.94    1.1542414     49.35762     49.35762    106.33882 
   23600    26680    300.46129    753.74188   -2928125.1    23894.194   -2904230.9    259027.66    1.1543852    49.348718    49.348718    106.36393 
   23700    26680    301.44961   -1244.1081   -2927916.4     23972.79   -2903943.6    259230.47    1.1534821    49.362207    49.362207    106.38904 
   23800    26680    299.63631    2254.8461   -2927633.6    23828.587     -2903805    259529.68    1.1521522    49.384859    49.384859    106.41415 
   23900    26680    300.61446   -1071.3666   -2927766.6    23906.375   -2903860.3    259898.44    1.1505175    49.414102    49.414102    106.43926 
   24000    26680    300.06253    24.025761   -2927850.8    23862.482   -2903988.3    260234.72    1.1490308    49.440229    49.440229    106.46437 
   24100    26680    296.12255    267.14075   -2927601.5    23549.155   -2904052.3    260398.15    1.1483096     49.44992     49.44992    106.48948 
   24200    26680    298.51834   -2979.9955   -2927426.9     23739.68   -2903687.2    260597.64    1.1474306    49.463026    49.463026    106.51459 
   24300    26680    301.32483   -1872.5228   -2927516.6    23962.867   -2903553.7    260721.33    1.1468862    49.468934    49.468934     106.5397 
   24400    26680    299.37697   -2655.1604   -2927506.6    23807.963   -2903698.6    260608.59    1.1473824    49.452409    49.452409    106.56481 
   24500    26680    299.27128   -1547.6707     -2927677    23799.558   -2903877.4    260188.96    1.1492329    49.406759    49.406759    106.58992 
   24600    26680    297.51583   -1606.6482   -2927662.3    23659.956   -2904002.3    259947.31    1.1503012    49.377995    49.377995    106.61503 
   24700    26680    301.16355   -1348.8826   -2927880.6    23950.041   -2903930.6    259991.46    1.1501059    49.376374    49.376374    106.64014 
   24800    26680    303.81301    1685.0968   -2927776.8    24160.739   -2903616.1    260153.18    1.1493909    49.385914    49.385914    106.66525 
   24900    26680    303.75501   -188.06054   -2927780.9    24156.127   -2903624.7    260163.53    1.1493452    49.381085    49.381085    106.69036 
   25000    26680    299.56109    1977.5383     -2927690    23822.605   -2903867.4    259880.39    1.1505974    49.348399    49.348399    106.71547 
   25100    26680    298.07391   -1456.8627   -2927664.9    23704.337   -2903960.6    259710.67    1.1513493    49.326479    49.326479    106.74058 
   25200    26680    299.64864   -294.13024   -2927780.8    23829.567   -2903951.2    259992.33     1.150102    49.347416    49.347416    106.76569 
   25300    26680    301.81491   -411.62648     -2927963     24001.84   -2903961.2    260424.72    1.1481925    49.382628    49.382628     106.7908 
   25400    26680    299.06865   -1350.2399   -2927898.3    23783.443   -2904114.9    260559.88    1.1475969    49.389634    49.389634    106.81591 
   25500    26680    298.26104   -645.39345   -2927895.3    23719.218   -2904176.1    260453.18     1.148067    49.373717    49.373717    106.84102 
   25600    26680    299.58609     864.0496   -2927733.5    23824.593   -2903908.9    260351.59     1.148515    49.358288    49.358288    106.86612 
   25700    26680    301.83372   -543.92707   -2927745.4    24003.336     -2903742    260582.14    1.1474988    49.374337    49.374337    106.89123 
   25800    26680    300.97763   -3366.3574   -2927781.3    23935.256     -2903846    260932.48    1.1459582    49.401715    49.401715    106.91634 
   25900    26680    298.08889     -2103.15   -2927690.3    23705.529   -2903984.8    261134.19     1.145073    49.415003    49.415003    106.94145 
   26000    26680    298.46081   -908.30597   -2927654.8    23735.105   -2903919.7     261037.8    1.1454958    49.400084    49.400084    106.96656 
   26100    26680    299.79724   -746.26885   -2927446.1    23841.385   -2903604.7     260717.2    1.1469044    49.363944    49.363944    106.99167 
   26200    26680    303.90046   -257.93791   -2927624.1    24167.694   -2903456.4    260709.78     1.146937    49.357451    49.357451    107.01678 
   26300    26680    299.38394    619.43493   -2927441.6    23808.517   -2903633.1     260826.9     1.146422    49.362745    49.362745    107.04189 
   26400    26680     299.7349   -3172.8746   -2927547.8    23836.427   -2903711.4     260785.4    1.1466045     49.35303     49.35303      107.067 
   26500    26680    298.54979   -643.95704   -2927536.5    23742.182   -2903794.3    260663.51    1.1471406     49.33571     49.33571    107.09211 
   26600    26680    299.95701   -841.34869   -2927715.8     23854.09   -2903861.7    260763.87    1.1466991    49.339423    49.339423    107.11722 
   26700    26680      297.703     -517.533   -2927767.2     23674.84   -2904092.4    260800.15    1.1465396    49.337072    49.337072    107.14233 
   26800    26680    298.82277    2257.5032   -2927971.5     23763.89   -2904207.6    260801.01    1.1465358    49.331374    49.331374    107.16744 
   26900    26680    297.77962    207.58234   -2927661.6    23680.934   -2903980.6    261103.83    1.1452061    49.354224    49.354224    107.19255 
   27000    26680    301.12431   -101.68567   -2927730.5     23946.92   -2903783.5    261170.34    1.1449145    49.354728    49.354728    107.21766 
   27100    26680    300.32409   -380.75875   -2927663.1    23883.282   -2903779.8    261006.19    1.1456345     49.33344     49.33344    107.24277 
   27200    26680    302.82034   -55.843791   -2927850.6    24081.797   -2903768.8    260724.64    1.1468717    49.301053    49.301053    107.26788 
   27300    26680    301.34775   -1992.4459   -2927725.6    23964.689   -2903760.9    260694.78    1.1470031     49.29246     49.29246    107.29299 
   27400    26680    300.88883   -2236.9242   -2927698.7    23928.193   -2903770.6    260650.91    1.1471961    49.282547    49.282547     107.3181 
   27500    26680    299.64662   -291.40526   -2927604.2    23829.407   -2903774.8    260555.71    1.1476153    49.267782    49.267782    107.34321 
   27600    26680    300.89169   -1020.7915   -2927790.6    23928.421   -2903862.2    260655.95    1.1471739    49.271497    49.271497    107.36831 
   27700    26680    299.74118    528.43508   -2927856.6    23836.927   -2904019.7    260818.52    1.1464588    49.281098    49.281098    107.39342 
   27800    26680    300.74697    406.85976   -2927840.7    23916.912   -2903923.8    260908.34    1.1460642    49.283821    49.283821    107.41853 
   27900    26680    301.87919   -1010.1658   -2927644.8    24006.952   -2903637.8    260665.62    1.1471313    49.255135    49.255135    107.44364 
   28000    26680    302.49574    124.18143   -2927689.2    24055.983   -2903633.2    260591.09    1.1474594     49.24234     49.24234    107.46875 
   28100    26680    302.57329   -2432.0307   -2927854.7    24062.151   -2903792.6    260530.52    1.1477262    49.230866    49.230866    107.49386 
   28200    26680    300.59295   -1223.0198   -2927815.5    23904.664   -2903910.9    260560.48    1.1475943    49.227946    49.227946    107.51897 
   28300    26680    299.35189    459.73956   -2927770.7    23805.969   -2903964.7     260460.2    1.1480361    49.212726    49.212726    107.54408 
   28400    26680    298.71685   -1526.0483   -2927651.5    23755.467     -2903896    260415.15    1.1482347    49.202726    49.202726    107.56919 
   28500    26680    300.03509   -792.66123     -2927424      23860.3   -2903563.7    260453.11    1.1480673     49.20057     49.20057     107.5943 
   28600    26680    302.11992    651.26355   -2927524.7    24026.096   -2903498.6    260469.81    1.1479937    49.196407    49.196407    107.61941 
   28700    26680    299.42012   -1637.3112   -2927439.6    23811.395   -2903628.2    260475.25    1.1479697    49.191184    49.191184    107.64452 
   28800    26680    298.51831    2349.5604   -2927493.1    23739.678   -2903753.4    260361.62    1.1484708    49.174717    49.174717    107.66963 
   28900    26680      299.015    -3369.747   -2927496.7    23779.177   -2903717.6    260214.19    1.1491214    49.155061    49.155061    107.69474 
   29000    26680    302.10709   -1111.6948   -2927671.7    24025.076   -2903646.6    260284.36    1.1488116    49.155959    49.155959    107.71985 
   29100    26680    299.29509   -2087.0246   -2927490.4    23801.451     -2903689    260393.86    1.1483286    49.160568    49.160568    107.74496 
   29200    26680    301.13458   -3498.0239   -2927691.7    23947.737     -2903744    260542.84    1.1476719      49.1689      49.1689    107.77007 
   29300    26680    301.44948   -595.77448   -2927851.8     23972.78   -2903879.1    260474.44    1.1479733    49.156719    49.156719    107.79518 
   29400    26680    298.75818    -122.7472   -2927839.3    23758.753   -2904080.5    260299.15    1.1487464    49.134454    49.134454    107.82029 
   29500    26680    297.13905   -1765.2731   -2927776.3    23629.992   -2904146.3    260428.94    1.1481739     49.14098     49.14098     107.8454 
   29600    26680    300.60338   -193.49996   -2927698.8    23905.493   -2903793.3    260217.59    1.1491064    49.115319    49.115319    107.87051 
   29700    26680    301.18322   -978.42775   -2927575.7    23951.605   -2903624.1    259886.12     1.150572    49.078315    49.078315    107.89561 
   29800    26680    299.37161   -212.05364   -2927482.2    23807.537   -2903674.7    259764.69    1.1511099     49.06114     49.06114    107.92072 
   29900    26680    299.05546   -4080.2053   -2927646.1    23782.395   -2903863.7    259974.19    1.1501823    49.075211    49.075211    107.94583 
   30000    26680    299.57024    -1852.636     -2927806    23823.333   -2903982.7    259957.33    1.1502568    49.067913    49.067913    107.97094 
   30100    26680    299.30047    -1409.836     -2927711    23801.879   -2903909.1    260174.63    1.1492962     49.08271     49.08271    107.99605 
   30200    26680     303.7627    -552.9803   -2927694.5    24156.739   -2903537.8    260334.72    1.1485894    49.092102    49.092102    108.02116 
   30300    26680    300.90633    -2598.721     -2927477    23929.585   -2903547.4    260384.38    1.1483703    49.091078    49.091078    108.04627 
   30400    26680    300.52731   -2069.3389     -2927555    23899.444   -2903655.6     260427.2    1.1481815    49.089411    49.089411    108.07138 
   30500    26680    301.85711    1550.3718   -2927825.7    24005.196   -2903820.5    260501.85    1.1478525    49.090743    49.090743    108.09649 
   30600    26680    299.96501     1504.334   -2927935.8    23854.727   -2904081.1     260597.4    1.1474317    49.094043    49.094043     108.1216 
   30700    26680    297.73352   -1098.6354   -2927728.5    23677.268   -2904051.2    260421.22    1.1482079    49.071748    49.071748    108.14671 
   30800    26680    299.58119     46.52825   -2927708.2    23824.203     -2903884    260404.63     1.148281     49.06449     49.06449    108.17182 
   30900    26680    298.81415    460.40263   -2927469.1    23763.204   -2903705.9    260695.21    1.1470011     49.08616     49.08616    108.19693 
   31000    26680    303.30835    -573.7194   -2927815.9    24120.606   -2903695.3    260852.61     1.146309     49.09528     49.09528    108.22204 
   31100    26680    300.03851   -1086.8946   -2927699.1    23860.572   -2903838.6       260845    1.1463425    49.088869    49.088869    108.24715 
   31200    26680    299.97237   -329.66157   -2927724.5    23855.312   -2903869.2    260926.68    1.1459836    49.090861    49.090861    108.27226 
   31300    26680    299.44935   -810.13396   -2927627.2    23813.719   -2903813.5    261260.06    1.1445213    49.116517    49.116517    108.29737 
   31400    26680     298.5175    117.86569   -2927494.4    23739.614   -2903754.7    261473.91    1.1435852    49.130919    49.130919    108.32248 
   31500    26680    300.93624    1346.7861   -2927570.3    23931.964   -2903638.4    261574.65    1.1431448    49.134688    49.134688    108.34759 
   31600    26680    299.40352    636.68995   -2927409.3    23810.074   -2903599.2    261719.03    1.1425142    49.142553    49.142553     108.3727 
   31700    26680    300.76197   -1030.9427   -2927660.4    23918.105   -2903742.3    261638.76    1.1428647    49.129325    49.129325    108.39781 
   31800    26680    298.02424    178.54663   -2927789.8    23700.387   -2904089.4    261552.25    1.1432427    49.115514    49.115514    108.42291 
   31900    26680    299.05396    -914.2364   -2927741.8    23782.276   -2903959.6    261885.81    1.1417866    49.141133    49.141133    108.44802 
   32000    26680      301.457   -817.53941   -2927738.7    23973.377   -2903765.3    261856.24    1.1419155     49.13267     49.13267    108.47313 
   32100    26680    302.25495   -622.67438   -2927682.9    24036.834   -2903646.1    261535.05    1.1433179    49.096846    49.096846    108.49824 
   32200    26680     301.2307   -3409.6557   -2927621.2    23955.381   -2903665.8       261371    1.1440355    49.075767    49.075767    108.52335 
   32300    26680    298.23725    518.14496   -2927696.4    23717.326   -2903979.1    261416.24    1.1438375    49.074337    49.074337    108.54846 
   32400    26680     296.6488   -2017.9543   -2927620.2    23591.005   -2904029.1    261451.62    1.1436828    49.071982    49.071982    108.57357 
   32500    26680    299.80055    207.80248   -2927695.3    23841.648   -2903853.6    261565.82    1.1431834    49.077024    49.077024    108.59868 
   32600    26680    299.70945   -2664.8035   -2927657.6    23834.403   -2903823.2    261819.13    1.1420774    49.095107    49.095107    108.62379 
   32700    26680    301.54465   -4563.6204   -2927788.7    23980.348   -2903808.3    262133.71    1.1407068    49.118915    49.118915     108.6489 
   32800    26680    297.99041    -931.8147   -2927465.3    23697.697   -2903767.6    262260.37    1.1401559    49.125105    49.125105    108.67401 
   32900    26680    300.02713   -2551.0803   -2927290.3    23859.667   -2903430.7    262365.86    1.1396975    49.129308    49.129308    108.69912 
   33000    26680    301.28707   -2688.0947   -2927286.7    23959.864   -2903326.8     262462.9    1.1392761    49.132718    49.132718    108.72423 
   33100    26680    301.21095    138.95958   -2927457.9     23953.81   -2903504.1    262575.53    1.1387874    49.137585    49.137585    108.74934 
   33200    26680    299.91658    1314.9882   -2927530.3    23850.875   -2903679.4    262782.38     1.137891    49.151263    49.151263    108.77445 
   33300    26680    300.70027    220.11482   -2927621.9    23913.199   -2903708.7    262666.12    1.1383947    49.134717    49.134717    108.79956 
   33400    26680     301.4618   -1430.4581   -2927737.3    23973.759   -2903763.5    262387.93    1.1396016    49.103026    49.103026    108.82467 
   33500    26680    301.42092   -427.01655   -2927814.4    23970.508   -2903843.9    262068.92    1.1409888    49.067506    49.067506    108.84978 
   33600    26680    298.95968    -258.5344   -2927798.1    23774.778   -2904023.3    261885.46    1.1417881    49.044672    49.044672    108.87489 
   33700    26680    300.04987    466.82224   -2927972.6    23861.475   -2904111.1    261754.53    1.1423592    49.026758    49.026758        108.9 
   33800    26680    300.53431    774.27128   -2927925.7    23900.001   -2904025.7    261785.26    1.1422251    49.023984    49.023984    108.92511 
   33900    26680    301.74729   -1946.5724   -2927727.2    23996.463   -2903730.7    262001.25    1.1412835    49.038551    49.038551    108.95021 
   34000    26680    299.85767   -1100.8915   -2927490.5    23846.191   -2903644.3    262149.98     1.140636    49.046817    49.046817    108.97532 
   34100    26680     299.0346   -225.51611   -2927390.9    23780.736   -2903610.1    262275.34    1.1400908    49.052892    49.052892    109.00043 
   34200    26680    301.02083    453.06137   -2927500.1    23938.691   -2903561.4    262365.22    1.1397002    49.055646    49.055646    109.02554 
   34300    26680    304.70443   -1269.8007   -2927578.3    24231.629   -2903346.7    262490.01    1.1391584    49.061661    49.061661    109.05065 
   34400    26680    302.10671   -663.90953     -2927445    24025.046   -2903419.9    262523.65    1.1390124    49.059158    49.059158    109.07576 
   34500    26680    298.82828    784.49412   -2927438.5    23764.328   -2903674.1    262423.42    1.1394475    49.044147    49.044147    109.10087 
   34600    26680    300.13265   -3173.4962   -2927663.5    23868.058   -2903795.5    262595.49    1.1387008    49.054579    49.054579    109.12598 
   34700    26680    298.33282   -2236.6838   -2927522.3    23724.927   -2903797.4    262719.74    1.1381623    49.060539    49.060539    109.15109 
   34800    26680    301.96463    609.82109   -2927627.8    24013.747     -2903614    262798.69    1.1378204    49.062267    49.062267     109.1762 
   34900    26680    302.42349   -392.34621     -2927430    24050.238   -2903379.8    262633.51     1.138536    49.041206    49.041206    109.20131 
   35000    26680    304.81856   -710.43071   -2927379.9    24240.705   -2903139.2    262601.45     1.138675    49.032576    49.032576    109.22642 
   35100    26680    299.96388   -1436.1164   -2927229.3    23854.637   -2903374.7    262599.75    1.1386824    49.026782    49.026782    109.25153 
   35200    26680    300.85914   -1459.3583     -2927563    23925.833   -2903637.2    262609.13    1.1386417    49.022025    49.022025    109.27664 
   35300    26680    298.78435   -2678.1038   -2927533.8    23760.835     -2903773    262632.57    1.1385401    49.018581    49.018581    109.30175 
   35400    26680    299.23427   -831.98699   -2927592.6    23796.615     -2903796     262758.2    1.1379957    49.024673    49.024673    109.32686 
   35500    26680    298.79203   -2733.3704   -2927525.1    23761.445   -2903763.6    262830.26    1.1376837    49.025766    49.025766    109.35197 
   35600    26680    300.76059    154.93117   -2927418.8    23917.995   -2903500.8    262920.77     1.137292    49.028578    49.028578    109.37708 
   35700    26680    302.64573   -2925.0505   -2927467.2    24067.911   -2903399.3    263108.35    1.1364812    49.040436    49.040436    109.40219 
   35800    26680     301.5825   -494.73388   -2927479.3    23983.358   -2903495.9    263113.45    1.1364592    49.035284    49.035284     109.4273 
   35900    26680    299.50629   -1119.7085   -2927505.9    23818.247   -2903687.6    263170.17    1.1362143    49.034944    49.034944    109.45241 
   36000    26680    299.10852   -1921.2719   -2927763.9    23786.615   -2903977.3    263222.64    1.1359878    49.034207    49.034207    109.47751 
   36100    26680    296.96332   -130.04556   -2927809.5    23616.017   -2904193.5    263090.05    1.1365603    49.016234    49.016234    109.50262 
   36200    26680    300.69317   -4180.0826   -2927915.4    23912.633   -2904002.8    263221.86    1.1359911    49.022892    49.022892    109.52773 
   36300    26680    299.49024   -1800.0313   -2927694.3    23816.971   -2903877.3    262824.24    1.1377098    48.980237    48.980237    109.55284 
   36400    26680    299.65101    -2973.761   -2927510.6    23829.756   -2903680.8    262740.81     1.138071    48.966851    48.966851    109.57795 
   36500    26680    301.42134   -2305.9503   -2927503.3    23970.541   -2903532.8    262749.45    1.1380336    48.962047    48.962047    109.60306 
   36600    26680    298.88904   -2100.8125   -2927430.4     23769.16   -2903661.3     262636.4    1.1385234    48.945906    48.945906    109.62817 
   36700    26680    298.16539   -1492.6061   -2927538.6    23711.612     -2903827    262448.49    1.1393387     48.92279     48.92279    109.65328 
   36800    26680    298.19737  -0.38804685   -2927466.8    23714.155   -2903752.6    262413.45    1.1394908    48.913924    48.913924    109.67839 
   36900    26680    302.20296   -286.18317   -2927415.2      24032.7   -2903382.5    262467.47    1.1392563     48.91336     48.91336     109.7035 
   37000    26680    301.57362    1258.6591   -2927397.6    23982.652   -2903414.9    262366.05    1.1396966    48.898313    48.898313    109.72861 
   37100    26680    300.19364   -202.05944   -2927483.9    23872.909     -2903611    262367.54    1.1396902    48.892859    48.892859    109.75372 
   37200    26680     299.0194   -324.27398   -2927574.7    23779.527   -2903795.2    262462.79    1.1392766    48.896139    48.896139    109.77883 
   37300    26680    298.17594    -649.0174   -2927395.2    23712.451   -2903682.7    262332.65    1.1398417    48.878426    48.878426    109.80394 
   37400    26680    302.08649   -2614.3346   -2927562.8    24023.437   -2903539.4    261972.37    1.1414093    48.839267    48.839267    109.82905 
   37500    26680    300.43715   -903.83063   -2927527.2    23892.274     -2903635     261883.3    1.1417975    48.825382    48.825382    109.85416 
   37600    26680     298.5032   -333.85584   -2927429.5    23738.476     -2903691    261713.62    1.1425378    48.803985    48.803985    109.87927 
   37700    26680    300.23046   -449.72488   -2927581.8    23875.837     -2903706    261760.75    1.1423321    48.802804    48.802804    109.90438 
   37800    26680    299.17699   -1634.6595   -2927452.9    23792.059   -2903660.8    261978.04    1.1413846    48.817478    48.817478    109.92949 
   37900    26680    300.98301   -2743.9652     -2927325    23935.683   -2903389.3    262428.82     1.139424    48.853881    48.853881     109.9546 
   38000    26680    301.59919   -1490.6541   -2927239.9    23984.685   -2903255.2    262506.92    1.1390851    48.855572    48.855572    109.97971 
   38100    26680    301.45844    71.369856     -2927409    23973.492   -2903435.5    262578.71    1.1387736    48.856675    48.856675    110.00481 
   38200    26680    299.36181    1218.4577   -2927405.5    23806.757   -2903598.7     262538.2    1.1389493    48.847332    48.847332    110.02992 
   38300    26680    300.28913   -1828.9288   -2927451.7    23880.502   -2903571.2    262775.07    1.1379227    48.863787    48.863787    110.05503 
   38400    26680    300.77075   -612.83985   -2927466.2    23918.804   -2903547.4    262925.81    1.1372703    48.872226    48.872226    110.08014 
   38500    26680    299.65783   -897.59006     -2927496    23830.298   -2903665.7    263167.66    1.1362251    48.889122    48.889122    110.10525 
   38600    26680    298.27743   -3981.3079   -2927592.7    23720.522   -2903872.2    263244.25    1.1358945    48.890661    48.890661    110.13036 
   38700    26680    297.72351    -275.2334   -2927484.5    23676.472     -2903808    263064.17    1.1366721    48.868365    48.868365    110.15547 
   38800    26680    302.46188   -607.97105   -2927548.6    24053.291   -2903495.3    263145.81    1.1363195    48.870378    48.870378    110.18058 
   38900    26680    301.73302   -680.34764   -2927487.9    23995.328   -2903492.6    263057.85    1.1366994    48.856643    48.856643    110.20569 
   39000    26680    299.33394   -2705.5772   -2927417.6    23804.541   -2903613.1    262685.39    1.1383112    48.816482    48.816482     110.2308 
   39100    26680    298.13719   -3678.7291   -2927527.9    23709.369   -2903818.5    262178.36    1.1405125    48.763793    48.763793    110.25591 
   39200    26680    297.09653    1205.9251   -2927503.6    23626.611     -2903877    262026.62     1.141173     48.74413     48.74413    110.28102 
   39300    26680    299.07828   -860.26807   -2927576.9     23784.21   -2903792.7    262213.45    1.1403599    48.755954    48.755954    110.30613 
   39400    26680    300.91822    1274.9295   -2927583.4    23930.531   -2903652.9    262266.33      1.14013    48.755321    48.755321    110.33124 
   39500    26680    302.74663   -1390.9293   -2927393.8    24075.935   -2903317.9    262407.63    1.1395161    48.762905    48.762905    110.35635 
   39600    26680    300.25939   -696.86781     -2927149    23878.137   -2903270.8    262688.64     1.138297    48.783458    48.783458    110.38146 
   39700    26680    302.21047   -1822.5884   -2927538.6    24033.297   -2903505.3    262975.63    1.1370548    48.804548    48.804548    110.40657 
   39800    26680    300.62901    1470.9904   -2927589.1    23907.531   -2903681.6    263001.93    1.1369411    48.801439    48.801439    110.43168 
   39900    26680    300.16427   -1721.0761   -2927580.9    23870.573   -2903710.3    263406.48    1.1351949    48.833407    48.833407    110.45679 
   40000    26680    301.24675    259.28421   -2927592.5    23956.657   -2903635.9    263640.09    1.1341891    48.849505    48.849505     110.4819 
   40100    26680    300.26304   -1674.3989   -2927426.9    23878.428   -2903548.5    264033.91    1.1324973    48.880422    48.880422    110.50701 
   40200    26680     301.1089   -856.72279   -2927237.9    23945.695   -2903292.2    263993.38    1.1326712    48.871119    48.871119    110.53211 
   40300    26680    302.29724   -1261.4769     -2927280    24040.197   -2903239.8     263993.4    1.1326711     48.86557     48.86557    110.55722 
   40400    26680    299.60255   -1182.7873   -2927301.1    23825.902   -2903475.2    263699.06    1.1339354    48.832776    48.832776    110.58233 
   40500    26680    299.42338   -391.50118   -2927437.5    23811.653   -2903625.8    263625.55    1.1342516    48.820427    48.820427    110.60744 
   40600    26680    299.30239   -1134.1706   -2927456.1    23802.032     -2903654    263675.79    1.1340355    48.819537    48.819537    110.63255 
   40700    26680    299.01561    -1438.749   -2927373.3    23779.226   -2903594.1    263702.12    1.1339223    48.816435    48.816435    110.65766 
   40800    26680    302.03299   -1559.7357   -2927472.3    24019.183   -2903453.1    263573.05    1.1344775    48.798951    48.798951    110.68277 
   40900    26680    300.18033    587.65661   -2927356.7     23871.85   -2903484.8    263588.94    1.1344091    48.794887    48.794887    110.70788 
   41000    26680    299.00795   -1407.7305   -2927509.2    23778.617   -2903730.6    264012.06    1.1325911    48.828498    48.828498    110.73299 
   41100    26680    296.67076   -1194.1099   -2927350.1    23592.752   -2903757.4    264026.07     1.132531    48.824258    48.824258     110.7581 
   41200    26680    301.44996   -325.22255   -2927521.1    23972.818   -2903548.2    264003.95    1.1326259     48.81668     48.81668    110.78321 
   41300    26680     299.9402   -2065.6243   -2927262.9    23852.754   -2903410.1    264079.64    1.1323013    48.818145    48.818145    110.80832 
   41400    26680    302.53045   -1242.3934   -2927466.5    24058.744   -2903407.7    264293.86    1.1313835    48.832409    48.832409    110.83343 
   41500    26680    299.12223   -2280.0773   -2927310.3    23787.705   -2903522.5    264258.85    1.1315334    48.823645    48.823645    110.85854 
   41600    26680    301.21501   -2309.0405   -2927574.3    23954.133   -2903620.1    264293.27     1.131386    48.821295    48.821295    110.88365 
   41700    26680    299.14387   -337.83388   -2927537.3    23789.426   -2903747.8    264471.03    1.1306255    48.832183    48.832183    110.90876 
   41800    26680     298.6289   -1049.8603   -2927595.7    23748.473   -2903847.2    264651.37    1.1298551      48.8433      48.8433    110.93387 
   41900    26680    298.64056   -546.18806   -2927695.4      23749.4     -2903946    264670.79    1.1297722    48.839565    48.839565    110.95898 
   42000    26680    298.16468   -419.95316   -2927509.3    23711.556   -2903797.7    264651.58    1.1298542    48.832268    48.832268    110.98409 
   42100    26680    300.78083   -931.15257   -2927471.1    23919.605   -2903551.5    264690.03    1.1296901    48.830292    48.830292     111.0092 
   42200    26680    300.06114   -208.69767   -2927293.9    23862.372   -2903431.5    264913.65    1.1287365     48.84539     48.84539    111.03431 
   42300    26680     301.6795      2845.97   -2927412.4    23991.071   -2903421.3    265043.68    1.1281827    48.851852    48.851852    111.05941 
   42400    26680    300.02672   -440.16426   -2927553.4    23859.634   -2903693.8    264956.22    1.1285551    48.838271    48.838271    111.08452 
   42500    26680    297.62585   -3974.3411   -2927549.2    23668.705   -2903880.5    264735.14    1.1294976    48.812375    48.812375    111.10963 
   42600    26680    298.57657   -424.47883   -2927507.6    23744.311   -2903763.2    264519.94    1.1304165    48.787019    48.787019    111.13474 
   42700    26680    302.57595   -857.22146   -2927642.7    24062.362   -2903580.3    264115.07    1.1321493    48.744162    48.744162    111.15985 
   42800    26680    298.80673   -2282.2441   -2927355.3    23762.614   -2903592.7    263962.76    1.1328026    48.724603    48.724603    111.18496 
   42900    26680    299.15805     -1426.78     -2927504    23790.553   -2903713.5    263920.91    1.1329822     48.71524     48.71524    111.21007 
   43000    26680    299.16119   -1657.6148   -2927759.2    23790.803   -2903968.4    263926.18    1.1329596    48.710226    48.710226    111.23518 
   43100    26680    297.76776    876.12375   -2927669.1     23679.99   -2903989.1    263704.57    1.1339117    48.684278    48.684278    111.26029 
   43200    26680     300.6164   -1404.5734   -2927561.5    23906.529   -2903654.9    263844.64    1.1333097    48.691712    48.691712     111.2854 
   43300    26680    301.96807    -2431.024   -2927562.2     24014.02   -2903548.2    263836.39    1.1333452    48.685458    48.685458    111.31051 
   43400    26680    301.07838   -422.09794   -2927480.8    23943.268   -2903537.5    263758.15    1.1336814     48.67275     48.67275    111.33562 
   43500    26680    300.83307   -305.02719   -2927491.8     23923.76     -2903568    263981.33    1.1327229    48.687847    48.687847    111.36073 
   43600    26680    299.99635   -367.22275   -2927560.5    23857.219   -2903703.3    264520.92    1.1304123    48.732088    48.732088    111.38584 
   43700    26680    297.11226   -1688.1421   -2927440.8    23627.862     -2903813    264696.94    1.1296606    48.742806    48.742806    111.41095 
   43800    26680    298.46049    311.33999   -2927325.4     23735.08   -2903590.3    264394.88    1.1309512    48.709497    48.709497    111.43606 
   43900    26680     300.9094   -712.46739   -2927283.7     23929.83   -2903353.9    264263.42    1.1315138    48.691901    48.691901    111.46117 
   44000    26680    302.12159   -2657.2705     -2927444    24026.229   -2903417.8    264091.31    1.1322512    48.670561    48.670561    111.48628 
   44100    26680     300.4123   -2917.2127   -2927489.1    23890.297   -2903598.8    264052.08    1.1324194    48.661466    48.661466    111.51139 
   44200    26680    298.81339   -1749.8761   -2927404.7    23763.144   -2903641.6    263946.77    1.1328712    48.646285    48.646285     111.5365 
   44300    26680     299.3569   -1317.7453   -2927330.9    23806.367   -2903524.5    263782.73    1.1335757    48.625693    48.625693    111.56161 
   44400    26680    299.90585   -436.86059   -2927229.3    23850.022   -2903379.3    263684.86    1.1339965    48.611201    48.611201    111.58671 
   44500    26680    301.40976    835.64056   -2927280.1    23969.621   -2903310.5    263680.13    1.1340168    48.605297    48.605297    111.61182 
   44600    26680    302.23127    1383.5143   -2927413.6    24034.951   -2903378.7    263658.59    1.1341095    48.597845    48.597845    111.63693 
   44700    26680    299.01496   -317.34279     -2927401    23779.174   -2903621.8    263572.86    1.1344783     48.58448     48.58448    111.66204 
   44800    26680    296.94848     -1144.65     -2927372    23614.837   -2903757.1    263267.83    1.1357928      48.5509      48.5509    111.68715 
   44900    26680    299.42847   -2057.6867   -2927497.1    23812.058   -2903685.1    263094.91    1.1365393    48.529498    48.529498    111.71226 
   45000    26680     301.7055   -895.81246   -2927448.6    23993.139   -2903455.5    263343.38    1.1354669    48.546953    48.546953    111.73737 
   45100    26680    302.54284   -170.46782   -2927375.7    24059.729     -2903316    263659.79    1.1341043    48.570652    48.570652    111.76248 
   45200    26680    302.77854   -1324.9895   -2927443.8    24078.473   -2903365.3    263650.33     1.134145    48.564325    48.564325    111.78759 
   45300    26680    299.40025   -1969.3415   -2927542.8    23809.814     -2903733       263810    1.1334586    48.573574    48.573574     111.8127 
   45400    26680    299.32478    1109.5366   -2927515.4    23803.812   -2903711.6    263776.55    1.1336023    48.565041    48.565041    111.83781 
   45500    26680    301.43821   -1664.4947   -2927502.9    23971.883     -2903531    263806.73    1.1334726    48.562369    48.562369    111.86292 
   45600    26680    300.10469   -226.73171   -2927290.5    23865.835   -2903424.7    263914.57    1.1330094    48.566843    48.566843    111.88803 
   45700    26680    299.91648   -503.31391   -2927359.4    23850.868   -2903508.6    263868.32     1.133208    48.557139    48.557139    111.91314 
   45800    26680    298.31007   -2595.2507   -2927462.8    23723.118   -2903739.7    263759.24    1.1336767    48.541656    48.541656    111.93825 
   45900    26680    297.73924    -715.4642   -2927388.8    23677.722   -2903711.1    263586.31    1.1344205    48.520299    48.520299    111.96336 
   46000    26680    299.69431   -309.47104     -2927184      23833.2   -2903350.8    263653.93    1.1341295    48.521082    48.521082    111.98847 
   46100    26680    300.71277    242.58877   -2927238.9    23914.193   -2903324.8    263808.79    1.1334638    48.529889    48.529889    112.01358 
   46200    26680     298.5014   -124.15905   -2927243.5    23738.334   -2903505.2    263794.93    1.1335233    48.523176    48.523176    112.03869 
   46300    26680    298.71816   -1020.4291   -2927413.8    23755.571   -2903658.2    263679.13    1.1340211    48.507089    48.507089     112.0638 
   46400    26680    300.05201    666.21131   -2927451.4    23861.645   -2903589.8    263724.89    1.1338244    48.505864    48.505864    112.08891 
   46500    26680     300.6103   -700.80037     -2927238    23906.044     -2903332    264004.58    1.1326232    48.526144    48.526144    112.11401 
   46600    26680    300.54024   -1929.4834   -2927139.2    23900.472   -2903238.8    264284.03    1.1314255    48.546383    48.546383    112.13912 
   46700    26680    300.82357   -567.11656   -2927295.4    23923.004   -2903372.4     264434.2     1.130783    48.554738    48.554738    112.16423 
   46800    26680    299.68036   -2511.2481   -2927352.9     23832.09   -2903520.9     264704.1    1.1296301    48.574074    48.574074    112.18934 
   46900    26680    299.12948   -1498.5157   -2927294.1    23788.281   -2903505.8    264845.14    1.1290285    48.581577    48.581577    112.21445 
   47000    26680    300.18856   -1011.9169   -2927300.5    23872.504     -2903428    265000.07    1.1283684    48.590349    48.590349    112.23956 
   47100    26680    302.47519   -503.36426   -2927376.7    24054.349   -2903322.3    265025.28    1.1282611    48.587225    48.587225    112.26467 
   47200    26680    299.16958    1212.4028   -2927192.7     23791.47   -2903401.2    264846.06    1.1290246    48.565363    48.565363    112.28978 
   47300    26680    298.63179   -813.38359   -2927345.1    23748.703   -2903596.4    264916.22    1.1287255    48.566366    48.566366    112.31489 
   47400    26680    299.29089   -132.49045   -2927559.8    23801.118   -2903758.7    264790.18    1.1292628    48.549384    48.549384       112.34 
   47500    26680    298.06778   -2098.5493   -2927569.2    23703.849   -2903865.4    264732.61    1.1295084    48.538683    48.538683    112.36511 
   47600    26680    297.57495    14.699464   -2927427.8    23664.657   -2903763.2    264608.21    1.1300394    48.521855    48.521855    112.39022 
   47700    26680    300.34009   -2348.6344   -2927327.5    23884.555     -2903443    264912.15    1.1287429    48.544292    48.544292    112.41533 
   47800    26680    302.27047   -1708.6948   -2927386.2    24038.069   -2903348.1    265025.68    1.1282594    48.549271    48.549271    112.44044 
   47900    26680    300.68362   -184.61311   -2927388.9    23911.874   -2903477.1    265027.54    1.1282514    48.544021    48.544021    112.46555 
   48000    26680    297.74901   -1531.0383   -2927349.8    23678.499   -2903671.4    264935.14    1.1286449    48.530142    48.530142    112.49066 
   48100    26680    298.45389   -3349.3213   -2927416.5    23734.555   -2903681.9    264893.18    1.1288237    48.520883    48.520883    112.51577 
   48200    26680    301.20863   -818.52325     -2927280    23953.626   -2903326.4    264895.57    1.1288135    48.515689    48.515689    112.54088 
   48300    26680    301.49392    328.26778   -2927212.2    23976.314   -2903235.8    264838.11    1.1290585    48.505015    48.505015    112.56599 
   48400    26680    299.38491    -849.5007   -2927113.6    23808.595     -2903305    264990.58    1.1284088    48.513566    48.513566     112.5911 
   48500    26680    298.85934   -516.10129   -2927228.7    23766.799   -2903461.9    265244.61    1.1273281    48.531402    48.531402    112.61621 
   48600    26680    298.93667   -668.79758   -2927333.2    23772.948   -2903560.2    265388.68    1.1267161     48.53917     48.53917    112.64131 
   48700    26680    299.03495    1272.8374   -2927390.9    23780.764   -2903610.2    265319.49    1.1270099    48.527434    48.527434    112.66642 
   48800    26680    299.79055   -1927.5254   -2927346.2    23840.853   -2903505.4    265455.77    1.1264314    48.534486    48.534486    112.69153 
   48900    26680     301.1628   -2460.9936   -2927263.5    23949.981   -2903313.6    265080.44    1.1280263     48.49476     48.49476    112.71664 
   49000    26680    299.71502   -1452.8257   -2927028.6    23834.846   -2903193.8     264981.1    1.1284492    48.480273    48.480273    112.74175 
   49100    26680    300.45792   -1329.0283   -2927195.6    23893.925   -2903301.7    264903.41    1.1287801    48.467769    48.467769    112.76686 
   49200    26680    300.44619   -2034.0578   -2927433.5    23892.992   -2903540.5    264800.79    1.1292175    48.452986    48.452986    112.79197 
   49300    26680    299.43266    782.52535   -2927406.7    23812.392   -2903594.4     264631.7    1.1299391    48.432123    48.432123    112.81708 
   49400    26680    299.21429   -265.65617   -2927329.5    23795.026   -2903534.5    264663.11     1.129805    48.429608    48.429608    112.84219 
   49500    26680    299.57902   -1720.0107   -2927257.9    23824.031   -2903433.9    264783.65    1.1292906    48.435247    48.435247     112.8673 
   49600    26680    301.72916   -1688.8519   -2927153.7    23995.021   -2903158.7    264836.59    1.1290649    48.434701    48.434701    112.89241 
   49700    26680    301.94623    -775.7162   -2927195.9    24012.284   -2903183.6    264857.77    1.1289746    48.431252    48.431252    112.91752 
   49800    26680    298.15094    -1053.211     -2927178    23710.463   -2903467.5    264793.52    1.1292486    48.419994    48.419994    112.94263 
   49900    26680      300.189   -1510.3947   -2927332.8     23872.54   -2903460.3     264914.6    1.1287325     48.42568     48.42568    112.96774 
   50000    26680    300.56665   -116.01378   -2927330.4    23902.572   -2903427.8    264933.16    1.1286534    48.421995    48.421995    112.99285 
   50100    26680    301.28868    -2527.789   -2927363.1    23959.992   -2903403.1    264904.48    1.1287756    48.413995    48.413995    113.01796 
   50200    26680    300.91408   -907.69566   -2927447.9    23930.202   -2903517.7    264595.06    1.1300956    48.380338    48.380338    113.04307 
   50300    26680    299.57191    -1682.039   -2927538.9    23823.466   -2903715.5    264408.97    1.1308909    48.357952    48.357952    113.06818 
   50400    26680    299.82601   -1974.9747     -2927523    23843.673   -2903679.3    264423.05    1.1308307    48.353871    48.353871    113.09329 
   50500    26680    302.50612   -345.80503   -2927479.5    24056.809   -2903422.6    264422.97    1.1308311    48.348496    48.348496     113.1184 
   50600    26680     302.0017   -69.547262   -2927368.2    24016.695   -2903351.5    264544.85      1.13031    48.354271    48.354271     113.1435 
   50700    26680    301.73934   -659.19975   -2927387.1    23995.831   -2903391.3    264751.66    1.1294271    48.367802    48.367802    113.16861 
   50800    26680    295.82747    1347.3446   -2927300.1    23525.689   -2903774.5    264846.39    1.1290231    48.371088    48.371088    113.19372 
   50900    26680    299.42423   -1047.1799   -2927626.7    23811.721     -2903815    265112.29    1.1278908    48.389997    48.389997    113.21883 
   51000    26680    299.41963   -1195.9688   -2927453.7    23811.355   -2903642.3     265140.3    1.1277716    48.387187    48.387187    113.24394 
   51100    26680    300.78413   -20.517666   -2927345.6    23919.867   -2903425.7    264931.64    1.1286599    48.362782    48.362782    113.26905 
   51200    26680    300.04135   -291.66971   -2927245.8    23860.798     -2903385    264953.94    1.1285648    48.359458    48.359458    113.29416 
   51300    26680    298.50354   -1175.8346   -2927228.2    23738.503   -2903489.7    265351.36    1.1268746    48.390351    48.390351    113.31927 
   51400    26680    298.58806   -2919.2179   -2927329.9    23745.225   -2903584.7       265998    1.1241352     48.44391     48.44391    113.34438 
[...]
  559000    26680    299.66519    237.11185   -2928564.3    23830.884   -2904733.4    549207.02   0.54445353    47.757273    47.757273    240.80031 
  559100    26680    297.89229    148.54118   -2928423.2    23689.893   -2904733.3    549314.39   0.54434712    47.759451    47.759451    240.82542 
  559200    26680    301.14825   -1604.9124   -2928518.7    23948.824   -2904569.9       549155   0.54450511    47.750032    47.750032    240.85053 
  559300    26680    302.62071    1130.5597   -2928644.9    24065.922   -2904578.9    549227.33    0.5444334    47.750687    47.750687    240.87564 
  559400    26680     298.4052    353.97138   -2928531.9    23730.683   -2904801.2    549481.54   0.54418153    47.759247    47.759247    240.90075 
  559500    26680    301.05176   -845.20691   -2928855.3    23941.151   -2904914.1    549346.58   0.54431521    47.750894    47.750894    240.92586 
  559600    26680    297.74515   -569.01771   -2928626.5    23678.193   -2904948.4    549274.67   0.54438648     47.74528     47.74528    240.95097 
  559700    26680    300.85248   -889.63457   -2928621.5    23925.303   -2904696.2    550297.44   0.54337469    47.787221    47.787221    240.97608 
  559800    26680    301.14293    134.82175   -2928458.5    23948.401   -2904510.1    550846.54   0.54283304    47.808566    47.808566    241.00119 
  559900    26680    300.20733    413.24243   -2928406.3    23873.997   -2904532.3    550497.63    0.5431771    47.790933    47.790933     241.0263 
  560000    26680    298.95451    1140.3643   -2928477.3    23774.367   -2904702.9    550280.07   0.54339185       47.779       47.779    241.05141 
  560100    26680    297.26652   -1.2907929   -2928514.5     23640.13   -2904874.4    550447.61   0.54322645    47.783784    47.783784    241.07652 
  560200    26680       298.63    855.43941   -2928722.7     23748.56   -2904974.2    550339.22   0.54333344    47.776591    47.776591    241.10163 
  560300    26680    300.33508   -417.31988   -2928552.2    23884.156     -2904668    550881.51   0.54279858    47.797636    47.797636    241.12674 
  560400    26680    301.00799   -656.23646   -2928446.4     23937.67   -2904508.7    551519.05   0.54217113    47.822796    47.822796    241.15185 
  560500    26680    300.48369   -510.75583   -2928556.8    23895.975   -2904660.8    551503.53   0.54218638    47.819634    47.819634    241.17696 
  560600    26680    297.07285    686.06108   -2928398.1    23624.728   -2904773.4    551219.19   0.54246606    47.804816    47.804816    241.20207 
  560700    26680    298.93382    119.15677   -2928395.5    23772.721   -2904622.8    551523.35    0.5421669    47.815515    47.815515    241.22718 
  560800    26680    303.61982   -125.73722   -2928501.5    24145.376   -2904356.2    551311.29   0.54237544    47.803834    47.803834    241.25228 
  560900    26680    300.09762    3.9769368   -2928262.4    23865.273   -2904397.1    550777.28    0.5429013     47.77819     47.77819    241.27739 
  561000    26680    300.17156    -418.0137   -2928659.1    23871.152   -2904787.9    551004.74   0.54267719    47.785568    47.785568     241.3025 
  561100    26680    298.32311    -875.6148   -2928585.4    23724.155   -2904861.3    550643.08   0.54303361    47.767398    47.767398    241.32761 
  561200    26680    299.32845   -508.95096   -2928565.9    23804.104   -2904761.8    550046.07   0.54362301    47.739013    47.739013    241.35272 
  561300    26680      301.521    289.46972   -2928511.9    23978.467   -2904533.4    549652.07   0.54401269     47.71943     47.71943    241.37783 
  561400    26680    301.00427   -563.17328   -2928458.9    23937.374   -2904521.5    549777.42   0.54388866    47.722388    47.722388    241.40294 
  561500    26680    301.00163    138.26049   -2928589.7    23937.164   -2904652.5    550175.05   0.54349557     47.73716     47.73716    241.42805 
  561600    26680    297.32244   -345.80861   -2928619.7    23644.576   -2904975.1     551029.1    0.5426532    47.771714    47.771714    241.45316 
  561700    26680    297.68842    456.03981   -2928584.4    23673.681   -2904910.7    551364.73   0.54232287    47.783776    47.783776    241.47827 
  561800    26680    302.42024    692.74794     -2928799    24049.979     -2904749    551933.19   0.54176431    47.805916    47.805916    241.50338 
  561900    26680    300.44871    229.74115   -2928535.8    23893.193   -2904642.6    552232.72   0.54147046    47.816401    47.816401    241.52849 
  562000    26680    299.83391    570.76965   -2928376.8    23844.301   -2904532.5    552256.13   0.54144751    47.814929    47.814929     241.5536 
  562100    26680    302.25652   -202.33418   -2928275.7    24036.959   -2904238.7    552354.44   0.54135114      47.8167      47.8167    241.57871 
  562200    26680    300.97359    636.61753   -2928199.6    23934.934   -2904264.7    552774.01   0.54094024    47.832371    47.832371    241.60382 
  562300    26680    300.94398   -2029.4361   -2928469.6    23932.579     -2904537    553262.98   0.54046216    47.851036    47.851036    241.62893 
  562400    26680    300.89632    562.45373   -2928554.2    23928.789   -2904625.4       553127   0.54059502    47.842669    47.842669    241.65404 
  562500    26680    299.58509   -579.66971     -2928476    23824.514   -2904651.5    553267.12   0.54045812    47.846243    47.846243    241.67915 
  562600    26680     300.8675    1682.4455   -2928602.1    23926.497   -2904675.6    553126.34   0.54059567     47.83767     47.83767    241.70426 
  562700    26680    298.14706   -485.42893   -2928427.7    23710.154   -2904717.5    553172.16   0.54055089    47.837167    47.837167    241.72937 
  562800    26680     299.1054     305.4547   -2928382.9    23786.367   -2904596.6    553064.86   0.54065576    47.830043    47.830043    241.75448 
  562900    26680     301.2002   -1234.4889   -2928363.4    23952.955   -2904410.4    553138.41   0.54058387     47.83074     47.83074    241.77958 
  563000    26680    301.60591   -832.79343   -2928402.8    23985.219   -2904417.5    552604.64   0.54110603    47.805174    47.805174    241.80469 
  563100    26680    298.89746    -210.7535   -2928450.7     23769.83   -2904680.9    552248.01   0.54145546    47.787264    47.787264     241.8298 
  563200    26680    299.58972    -860.3362   -2928640.1    23824.882   -2904815.2    552000.22   0.54169852    47.774062    47.774062    241.85491 
  563300    26680    298.23848    227.02973   -2928531.4    23717.425     -2904814    551749.58   0.54194459    47.760736    47.760736    241.88002 
  563400    26680    299.43803    1039.3038   -2928548.1    23812.818   -2904735.3    551897.49   0.54179936    47.764657    47.764657    241.90513 
  563500    26680    300.26813   -1407.0925   -2928522.1    23878.832   -2904643.3     552147.9   0.54155364    47.773013    47.773013    241.93024 
  563600    26680    301.76242    339.31244   -2928604.4    23997.666   -2904606.8    552385.26   0.54132094    47.780801    47.780801    241.95535 
  563700    26680    300.63328   -974.80593   -2928709.7    23907.871   -2904801.9    552315.82   0.54138899    47.775319    47.775319    241.98046 
  563800    26680    298.52836    718.87696     -2928812    23740.477   -2905071.5     552677.3   0.54103489    47.788471    47.788471    242.00557 
  563900    26680    299.57261    564.26862   -2928782.3    23823.521   -2904958.8    553424.78   0.54030414    47.818296    47.818296    242.03068 
  564000    26680    301.37039   -1423.1811   -2928721.7     23966.49   -2904755.2    553935.74   0.53980576    47.837883    47.837883    242.05579 
  564100    26680    298.35002    315.97996     -2928438    23726.294   -2904711.7    554246.61   0.53950299    47.848823    47.848823     242.0809 
  564200    26680     300.8839    289.78317   -2928586.7    23927.802   -2904658.9     554081.6   0.53966366    47.839219    47.839219    242.10601 
  564300    26680    299.41833    278.30035   -2928244.4    23811.252   -2904433.1    554200.65   0.53954773    47.841877    47.841877    242.13112 
  564400    26680    302.33188   -283.04204   -2928283.5    24042.952   -2904240.6    554299.89   0.53945114     47.84368     47.84368    242.15623 
  564500    26680    302.86039   -834.80348     -2928550    24084.982     -2904465    554112.41   0.53963365    47.833108    47.833108    242.18134 
  564600    26680    300.94842    40.295685   -2928534.3    23932.933   -2904601.4    553624.23   0.54010949    47.809554    47.809554    242.20645 
  564700    26680    298.89406    350.16188   -2928504.5    23769.559   -2904734.9    553585.06   0.54014771    47.805385    47.805385    242.23156 
  564800    26680    298.74157   -53.240571   -2928466.5    23757.433     -2904709    553848.42   0.53989087    47.814277    47.814277    242.25667 
  564900    26680    301.89575    28.819252     -2928456    24008.269   -2904447.7    554155.61   0.53959159    47.825057    47.825057    242.28178 
  565000    26680    302.81034   -1061.3658   -2928431.3    24081.002   -2904350.3     554830.7   0.53893503    47.851699    47.851699    242.30688 
  565100    26680    297.68997   -374.81066   -2928441.7    23673.804   -2904767.9    555492.38   0.53829308    47.877744    47.877744    242.33199 
  565200    26680    299.19363   -480.16473   -2928617.9    23793.383   -2904824.5    555532.24   0.53825446    47.876981    47.876981     242.3571 
  565300    26680    300.06274    576.04687   -2928542.9    23862.499   -2904680.4    555693.61   0.53809815    47.881454    47.881454    242.38221 
  565400    26680    299.97114    992.42249   -2928347.1    23855.214   -2904491.9    555252.54   0.53852559    47.859969    47.859969    242.40732 
  565500    26680    301.38803   -417.83585   -2928402.4    23967.893   -2904434.5    555355.02   0.53842622    47.861906    47.861906    242.43243 
  565600    26680    299.32088   -367.77254   -2928531.1    23803.502   -2904727.6    555775.08   0.53801927    47.877524    47.877524    242.45754 
  565700    26680    295.69861     470.1229   -2928323.6    23515.441   -2904808.2    556264.74   0.53754567    47.896131    47.896131    242.48265 
  565800    26680    299.61375    1251.8504   -2928493.1    23826.793   -2904666.4    556004.93   0.53779685    47.882465    47.882465    242.50776 
  565900    26680    301.61848   -606.36811   -2928516.1    23986.219   -2904529.9    556162.69    0.5376443    47.886779    47.886779    242.53287 
  566000    26680    300.18133   -583.45025   -2928388.3     23871.93   -2904516.3    555774.19   0.53802014    47.867572    47.867572    242.55798 
  566100    26680    302.61521    241.73404   -2928503.7    24065.484   -2904438.2    554986.51   0.53878373    47.831164    47.831164    242.58309 
  566200    26680    301.36621    518.13033   -2928490.9    23966.157   -2904524.8    554882.77   0.53888447    47.824218    47.824218     242.6082 
  566300    26680    299.28852    -601.2836   -2928493.3    23800.929   -2904692.4    555003.69   0.53876706    47.826954    47.826954    242.63331 
  566400    26680    300.76196   -255.06681   -2928599.8    23918.104   -2904681.7    554717.65   0.53904487    47.812154    47.812154    242.65842 
  566500    26680    301.92973    330.41088   -2928497.1    24010.971   -2904486.1    555021.24   0.53875002    47.822762    47.822762    242.68353 
  566600    26680    303.09427    238.37525   -2928442.9    24103.581   -2904339.3    555636.46    0.5381535    47.846784    47.846784    242.70864 
  566700    26680    299.82411   -10.147201   -2928379.9    23843.522   -2904536.4    555849.67   0.53794707    47.853488    47.853488    242.73375 
  566800    26680    298.84716   -173.56056   -2928559.4     23765.83   -2904793.6    555921.42   0.53787764    47.854101    47.854101    242.75886 
  566900    26680    297.53237   -765.12091   -2928467.5    23661.271   -2904806.2    556130.39   0.53767554    47.860619    47.860619    242.78397 
  567000    26680    300.17091    821.25994   -2928492.5    23871.101   -2904621.4    555769.72   0.53802446    47.842623    47.842623    242.80908 
  567100    26680    301.32212    662.18499   -2928403.5    23962.651   -2904440.8    555700.29   0.53809168    47.837161    47.837161    242.83418 
  567200    26680     302.8324    300.55635   -2928536.5    24082.756   -2904453.8    556164.72   0.53764234    47.854673    47.854673    242.85929 
  567300    26680    302.27441     131.2483   -2928602.2    24038.382   -2904563.8    555984.11   0.53781699    47.844429    47.844429     242.8844 
  567400    26680     298.2039   -17.307939   -2928408.3    23714.675   -2904693.7    555861.23   0.53793589    47.836669    47.836669    242.90951 
  567500    26680    298.97474   -838.94721     -2928440    23775.976     -2904664    555732.18    0.5380608    47.828644    47.828644    242.93462 
  567600    26680    301.52542    71.165343   -2928399.5    23978.819   -2904420.6    555948.48   0.53785146    47.835479    47.835479    242.95973 
  567700    26680    301.25501   -71.206554   -2928207.1    23957.314   -2904249.8    556175.92   0.53763152     47.84279     47.84279    242.98484 
  567800    26680    302.90118   -250.52169   -2928056.9    24088.225   -2903968.7    555861.05   0.53793607    47.826774    47.826774    243.00995 
  567900    26680     302.4943    737.23096     -2928293    24055.868   -2904237.1     555274.4   0.53850439    47.799061    47.799061    243.03506 
  568000    26680    300.86963    187.54459   -2928437.9    23926.667   -2904511.2    555153.85   0.53862133    47.791403    47.791403    243.06017 
  568100    26680    300.54027     378.4438   -2928625.8    23900.475   -2904725.3    555306.36    0.5384734    47.795498    47.795498    243.08528 
  568200    26680    299.14704   -88.678899     -2928625    23789.678   -2904835.4    555343.67   0.53843722    47.794636    47.794636    243.11039 
  568300    26680     297.5513   -1092.5396   -2928379.5    23662.776   -2904716.7    555131.62    0.5386429    47.783042    47.783042     243.1355 
  568400    26680     299.5183    799.34543     -2928352    23819.202   -2904532.8    555077.62    0.5386953    47.778251    47.778251    243.16061 
  568500    26680    300.10537    455.12698   -2928476.5    23865.889   -2904610.6    555102.81   0.53867085    47.776868    47.776868    243.18572 
  568600    26680     297.9868   -425.17033   -2928551.2     23697.41   -2904853.8    555276.37   0.53850248     47.78187     47.78187    243.21083 
  568700    26680    296.98776   -370.70729   -2928655.8    23617.961   -2905037.8    554841.62   0.53892443    47.760696    47.760696    243.23594 
  568800    26680    298.53186    -964.3338   -2928740.4    23740.756   -2904999.6     554303.8   0.53944733    47.735079    47.735079    243.26105 
  568900    26680    300.49258    903.45559   -2928575.5    23896.682   -2904678.8    554075.49   0.53966961    47.722784    47.722784    243.28616 
  569000    26680    304.01441   -64.271444   -2928714.3    24176.755   -2904537.6    554445.18   0.53930977    47.736239    47.736239    243.31127 
  569100    26680    300.59984   -1086.9065   -2928594.5    23905.211   -2904689.3    555104.76   0.53866896     47.76216     47.76216    243.33638 
  569200    26680    300.05576    291.08842     -2928748    23861.943     -2904886    555508.41   0.53827754    47.777057    47.777057    243.36148 
  569300    26680    298.08435   -350.54796     -2928661    23705.167   -2904955.8     555601.1   0.53818774    47.778578    47.778578    243.38659 
  569400    26680     299.2472    -133.0747   -2928572.9    23797.643   -2904775.3    555196.46   0.53857999    47.758713    47.758713     243.4117 
  569500    26680    299.59819   -160.81652   -2928313.9    23825.556   -2904488.3    555260.32   0.53851805    47.758997    47.758997    243.43681 
  569600    26680    299.88303    24.359195   -2928325.6    23848.207   -2904477.3    555394.59   0.53838786    47.762307    47.762307    243.46192 
  569700    26680    300.35279   -855.70912   -2928465.6    23885.565     -2904580    555265.28   0.53851324    47.754284    47.754284    243.48703 
  569800    26680    297.97363    -264.2168   -2928471.9    23696.362   -2904775.6    555195.22   0.53858119     47.74881     47.74881    243.51214 
  569900    26680    298.37843    114.11793   -2928627.2    23728.554   -2904898.6     555320.7   0.53845949    47.751743    47.751743    243.53725 
  570000    26680    300.47402    481.95679   -2928707.6    23895.206   -2904812.4    555284.71   0.53849439    47.747735    47.747735    243.56236 
  570100    26680    302.91351    543.19938   -2928551.1    24089.207   -2904461.9     555015.7    0.5387554    47.733707    47.733707    243.58747 
  570200    26680    301.03567   -424.69052   -2928408.9    23939.871     -2904469    554602.13   0.53915715     47.71346     47.71346    243.61258 
  570300    26680    301.64342    216.52399   -2928575.8    23988.202   -2904587.5    554004.03   0.53973922    47.685268    47.685268    243.63769 
  570400    26680    299.79146   -289.71105   -2928653.2    23840.925   -2904812.3    553989.99    0.5397529    47.682207    47.682207     243.6628 
  570500    26680    298.27682   -157.72838   -2928613.4    23720.473   -2904892.9    554009.87   0.53973353    47.680605    47.680605    243.68791 
  570600    26680    296.60624   -686.54938   -2928384.5    23587.621   -2904796.9    554033.22   0.53971078    47.679154    47.679154    243.71302 
  570700    26680    299.88126   -1083.2605     -2928501    23848.066   -2904652.9    553823.22   0.53991543    47.667661    47.667661    243.73813 
  570800    26680    298.76497    678.12097   -2928403.2    23759.294     -2904644    553436.69   0.54029252     47.64857     47.64857    243.76324 
  570900    26680    299.98774   -965.76966   -2928516.4    23856.534   -2904659.9    553863.56   0.53987611    47.664487    47.664487    243.78835 
  571000    26680    300.55901     1318.762   -2928734.9    23901.965   -2904832.9    554495.49   0.53926084    47.689215    47.689215    243.81346 
  571100    26680    299.13549   -257.01823     -2928750    23788.759   -2904961.2    554203.92   0.53954455     47.67422     47.67422    243.83857 
  571200    26680    299.49544    343.20535   -2928565.7    23817.385   -2904748.3    554067.22   0.53967767    47.665886    47.665886    243.86368 
  571300    26680    300.16625   -765.43676   -2928403.4    23870.731   -2904532.7    554532.28   0.53922507    47.683431    47.683431    243.88878 
  571400    26680     300.9444    129.09638   -2928512.7    23932.613     -2904580    554982.61   0.53878752    47.700334    47.700334    243.91389 
  571500    26680    298.33499    722.92307   -2928415.3    23725.099   -2904690.2    555565.53   0.53822221    47.722921    47.722921      243.939 
  571600    26680    300.45121   -965.62421   -2928776.1    23893.392   -2904882.7    556294.17   0.53751723    47.751749    47.751749    243.96411 
  571700    26680    297.88494    634.84861   -2928686.3    23689.309     -2904997    556782.64   0.53704567    47.770251    47.770251    243.98922 
  571800    26680    297.41392   -388.36035   -2928446.2    23651.851   -2904794.3    557132.85   0.53670808    47.782813    47.782813    244.01433 
  571900    26680    301.96902    887.56173   -2928687.9    24014.096   -2904673.8    557441.76   0.53641066    47.793599    47.793599    244.03944 
  572000    26680    299.93634    663.71466     -2928471    23852.447   -2904618.5    557648.68   0.53621162     47.80001     47.80001    244.06455 
  572100    26680    299.84677   -309.81665   -2928479.3    23845.324   -2904633.9    558086.01   0.53579144     47.81629     47.81629    244.08966 
  572200    26680    300.86096   -1305.8289   -2928637.7    23925.977   -2904711.7    558222.19   0.53566073    47.819664    47.819664    244.11477 
  572300    26680    298.48655    525.82169     -2928565    23737.153   -2904827.8    558210.78  