LAMMPS (2 Aug 2019)
# lammps code to equilibrate pmma system
# method adopted from the paper "Toughening of graphene based polymer nanocomposite via tuning chemical functionalization"
# after equilibration create crack and perform tension test
# pmma pnc system has been functionalized - 10 % of -OH functionalization
# cnt is functionalized with -OH group (hydrogen bonding)

units		real
atom_style 	charge
boundary 	p p p
read_data       pmma_pnc_funct.data
  orthogonal box = (-0.63401 -0.530852 0.387341) to (49.366 49.4691 100.387)
  2 by 2 by 7 MPI processor grid
  reading atoms ...
  26845 atoms
  read_data CPU = 0.0621014 secs

pair_style	reax/c control_file lgvdw yes
pair_coeff	* * ffield.reax.lg C C H O H C C C O O C C
Reading potential file ffield.reax.lg with DATE: 2012-01-06

neighbor	4 bin
neigh_modify	every 10 delay 0 check no

thermo 100
thermo_style custom step atoms temp press pe ke etotal vol density lx ly lz      #output variables

fix std all qeq/reax 1 0.0 10.0 1e-6 reax/c
min_style	 cg							#conjugate gradient minimization
minimize	 1.0e-6 1.0e-8 10000 100000
WARNING: Using 'neigh_modify every 1 delay 0 check yes' setting during minimization (../min.cpp:168)
Neighbor list info ...
  update every 1 steps, delay 0 steps, check yes
  max neighbors/atom: 2000, page size: 100000
  master list distance cutoff = 14
  ghost atom cutoff = 14
  binsize = 7, bins = 8 8 15
  2 neighbor lists, perpetual/occasional/extra = 2 0 0
  (1) pair reax/c, perpetual
      attributes: half, newton off, ghost
      pair build: half/bin/newtoff/ghost
      stencil: half/ghost/bin/3d/newtoff
      bin: standard
  (2) fix qeq/reax, perpetual, copy from (1)
      attributes: half, newton off, ghost
      pair build: copy
      stencil: none
      bin: none
Per MPI rank memory allocation (min/avg/max) = 277.9 | 284.3 | 290 Mbytes
Step Atoms Temp Press PotEng KinEng TotEng Volume Density Lx Ly Lz 
       0    26845            0    298024.12   -2816642.4            0   -2816642.4       250000    1.2034471           50           50          100 
      28    26845            0    12922.712   -2958322.4            0   -2958322.4       250000    1.2034471           50           50          100 
Loop time of 24.9406 on 28 procs for 28 steps with 26845 atoms

99.4% CPU use with 28 MPI tasks x no OpenMP threads

Minimization stats:
  Stopping criterion = energy tolerance
  Energy initial, next-to-last, final = 
        -2816642.42171     -2958320.99218     -2958322.42294
  Force two-norm initial, final = 39239.6 3745.91
  Force max component initial, final = 806.559 272.062
  Final line search alpha, max atom move = 0.000482665 0.131315
  Iterations, force evaluations = 28 69

MPI task timing breakdown:
Section |  min time  |  avg time  |  max time  |%varavg| %total
---------------------------------------------------------------
Pair    | 14.524     | 15.404     | 16.189     |  10.3 | 61.76
Neigh   | 0          | 0          | 0          |   0.0 |  0.00
Comm    | 0.063543   | 0.79373    | 1.5417     |  42.1 |  3.18
Output  | 0          | 0          | 0          |   0.0 |  0.00
Modify  | 8.6702     | 8.6786     | 8.6879     |   0.1 | 34.80
Other   |            | 0.06429    |            |       |  0.26

Nlocal:    958.75 ave 1007 max 894 min
Histogram: 1 1 1 2 3 6 6 4 3 1
Nghost:    11809 ave 11990 max 11637 min
Histogram: 6 2 3 1 0 3 3 3 4 3
Neighs:    957416 ave 1.0217e+06 max 866280 min
Histogram: 1 1 2 1 2 6 8 2 3 2

Total # of neighbors = 26807649
Ave neighs/atom = 998.609
Neighbor list builds = 0
Dangerous builds not checked


#set of equilibrations to reduce the energy of the system

reset_timestep 0
timestep 0.25
fix npt_equi all npt temp 300.0 300.0 25.0 iso 1.0 1.0 250.0
fix bd all reax/c/bonds 500 bonds.reaxc_eqbn
dump npt_dump all custom 500 dump.npt id type x y z
run 200000
Per MPI rank memory allocation (min/avg/max) = 282.5 | 288.9 | 294.7 Mbytes
Step Atoms Temp Press PotEng KinEng TotEng Volume Density Lx Ly Lz 
       0    26845            0    12922.721   -2958322.4            0   -2958322.4       250000    1.2034471           50           50          100 
     100    26845    70.848233   -5017.2461   -2963493.1    5669.0535   -2957824.1    251028.15    1.1985181    50.068449    50.068449     100.1369 
     200    26845    94.183741    1840.3097     -2963968    7536.2877   -2956431.7    249250.95    1.2070637    49.950013    49.950013    99.900027 
     300    26845    109.68309   -264.75613   -2963356.6    8776.4972   -2954580.1    248281.55    1.2117766    49.885173    49.885173    99.770346 
     400    26845    125.50046    -1678.789   -2962515.6    10042.153   -2952473.4    249302.66    1.2068133    49.953467    49.953467    99.906935 
     500    26845     153.6907    1883.9567   -2962202.1    12297.848   -2949904.3    250377.99    1.2016303    50.025186    50.025186    100.05037 
     600    26845    174.52413   -92.671871   -2960974.5    13964.874   -2947009.7    250394.82    1.2015495    50.026307    50.026307    100.05261 
     700    26845     189.9821    1833.2442   -2959072.8    15201.772     -2943871    250777.02    1.1997183    50.051748    50.051748     100.1035 
     800    26845    215.23976    719.20218   -2957780.5    17222.811   -2940557.7    252357.99    1.1922023    50.156708    50.156708    100.31342 
     900    26845    236.55798    476.16978   -2956026.5    18928.628   -2937097.8    254088.42     1.184083    50.271089    50.271089    100.54218 
    1000    26845    255.51319    990.22552   -2954126.2    20445.364   -2933680.8    255346.09    1.1782509    50.353895    50.353895    100.70779 
    1100    26845    271.19314   -2070.0454   -2952116.9    21700.025   -2930416.9    256338.71    1.1736884    50.419058    50.419058    100.83812 
    1200    26845    286.00688     1116.629   -2950359.5    22885.374   -2927474.1    257258.99    1.1694898    50.479323    50.479323    100.95865 
    1300    26845    298.33883    203.74495   -2948888.5    23872.138   -2925016.4    257878.39    1.1666808    50.519803    50.519803    101.03961 
    1400    26845    306.93606    45.485038   -2947942.3    24560.061   -2923382.2    258409.74    1.1642819    50.554478    50.554478    101.10896 
    1500    26845     304.2965    1520.3386   -2947203.6    24348.852   -2922854.7    258812.63    1.1624694    50.580738    50.580738    101.16148 
    1600    26845    301.09509   -93.412562   -2947176.8    24092.685   -2923084.1    259791.29    1.1580903    50.644411    50.644411    101.28882 
    1700    26845    298.77153    279.85809   -2947442.8    23906.761   -2923536.1    260593.52    1.1545251    50.696488    50.696488    101.39298 
    1800    26845    302.93451   -874.73575   -2948059.4     24239.87   -2923819.6    261067.91    1.1524272    50.727232    50.727232    101.45446 
    1900    26845     301.6271    33.032024   -2948475.4    24135.255   -2924340.1    261507.92    1.1504882    50.755715    50.755715    101.51143 
    2000    26845    299.97254    4046.5703   -2949108.1    24002.862   -2925105.3    261962.59    1.1484914    50.785113    50.785113    101.57023 
    2100    26845    293.84897     788.5478   -2949141.8    23512.874   -2925628.9    262848.23    1.1446216     50.84228     50.84228    101.68456 
    2200    26845    301.11411    3414.5402   -2949571.7    24094.207   -2925477.5     264704.5    1.1365949    50.961685    50.961685    101.92337 
    2300    26845       300.83    963.36066   -2949392.7    24071.474   -2925321.2     266924.5    1.1271418    51.103755    51.103755    102.20751 
    2400    26845    299.17487    1295.2543   -2949334.7    23939.035   -2925395.7    269029.18    1.1183239     51.23772     51.23772    102.47544 
    2500    26845    297.37176    980.36402   -2949079.5    23794.756   -2925284.8    271161.14    1.1095313    51.372711    51.372711    102.74542 
    2600    26845    300.83081    953.07258   -2948808.2    24071.538   -2924736.7    273448.61    1.1002498    51.516764    51.516764    103.03353 
    2700    26845    299.30332     2289.918   -2948182.4    23949.313   -2924233.1    275621.09    1.0915775    51.652833    51.652833    103.30567 
    2800    26845     302.0855    444.86025     -2947979    24171.934   -2923807.1    277733.32    1.0832758    51.784445    51.784445    103.56889 
    2900    26845    296.45267    723.03852   -2947227.9    23721.214   -2923506.7    279782.53    1.0753415    51.911494    51.911494    103.82299 
    3000    26845    302.71404    1793.4408   -2947245.5    24222.229   -2923023.3    281952.66    1.0670648    52.045366    52.045366    104.09073 
    3100    26845    300.75897    3018.7329   -2946855.1     24065.79   -2922789.3    284123.75     1.058911    52.178611    52.178611    104.35722 
    3200    26845    297.83265    2367.6651   -2946557.1    23831.635   -2922725.4    286218.31    1.0511619    52.306518    52.306518    104.61304 
    3300    26845    299.93553    1004.1945   -2946584.8    23999.901   -2922584.9    288156.39     1.044092    52.424314    52.424314    104.84863 
    3400    26845    301.12459    702.39971   -2946547.7    24095.046   -2922452.7    289913.94    1.0377624    52.530681    52.530681    105.06136 
    3500    26845    301.21711   -775.98528   -2946515.7    24102.449   -2922413.3    291289.77    1.0328607    52.613648    52.613648     105.2273 
    3600    26845    298.21489   -670.87879   -2946410.7    23862.221   -2922548.5    292240.67       1.0295    52.670837    52.670837    105.34167 
    3700    26845    300.08423    895.74561   -2946576.6    24011.799   -2922564.8    293083.18    1.0265405    52.721404    52.721404    105.44281 
    3800    26845    300.88352   -1593.6652   -2946728.9    24075.756   -2922653.1    293860.07    1.0238267    52.767946    52.767946    105.53589 
    3900    26845    302.71075    1158.3452   -2947110.8    24221.965   -2922888.8    294511.09    1.0215635    52.806885    52.806885    105.61377 
    4000    26845    296.71281    1385.5929   -2946998.6    23742.029   -2923256.6    294833.14    1.0204476    52.826126    52.826126    105.65225 
    4100    26845    298.20858    541.53253   -2947097.5    23861.716   -2923235.7    294841.91    1.0204173     52.82665     52.82665     105.6533 
    4200    26845    299.08301    56.505775   -2946859.8    23931.685   -2922928.1     294496.4    1.0216144    52.806007    52.806007    105.61201 
    4300    26845    303.08548   -1545.1954     -2946877     24251.95   -2922625.1    294129.96    1.0228872    52.784096    52.784096    105.56819 
    4400    26845    300.35494    888.77203   -2946794.8    24033.461   -2922761.3     293128.5    1.0263819    52.724121    52.724121    105.44824 
    4500    26845    299.70608    218.10216   -2946888.8    23981.541   -2922907.2    291815.42    1.0310002    52.645277    52.645277    105.29055 
    4600    26845    297.75479   -1756.4145   -2946708.8    23825.405   -2922883.4     290780.6    1.0346693    52.582974    52.582974    105.16595 
    4700    26845    301.15173    96.367278     -2946690    24097.217   -2922592.8    289792.02    1.0381989    52.523317    52.523317    105.04663 
    4800    26845     300.7671   -458.59475   -2946490.3     24066.44   -2922423.9    289123.64     1.040599    52.482905    52.482905    104.96581 
    4900    26845    301.89812    511.97153   -2946610.1    24156.941   -2922453.2    288219.88     1.043862    52.428164    52.428164    104.85633 
    5000    26845    300.23975   -332.25621   -2946768.8    24024.244   -2922744.5    287132.73    1.0478143    52.362162    52.362162    104.72432 
    5100    26845    300.49724   -343.47956   -2947096.2    24044.847   -2923051.4    286226.01    1.0511336    52.306987    52.306987    104.61397 
    5200    26845    299.63551    -672.6944   -2947426.2    23975.894   -2923450.3    285458.63    1.0539593    52.260199    52.260199     104.5204 
    5300    26845    294.53825   -1380.2979   -2947441.6    23568.027   -2923873.6    285108.87    1.0552522    52.238846    52.238846    104.47769 
    5400    26845    297.55271    -878.2138   -2947465.8    23809.235   -2923656.6    285406.41    1.0541521    52.257012    52.257012    104.51402 
    5500    26845     302.2451    64.612015   -2947417.6    24184.705   -2923232.9    285762.37     1.052839    52.278728    52.278728    104.55746 
    5600    26845    303.41677    884.50541   -2947527.5    24278.459     -2923249    285904.32    1.0523163    52.287383    52.287383    104.57477 
    5700    26845    297.84564    2646.6146   -2947478.1    23832.674   -2923645.5    286034.01    1.0518392    52.295288    52.295288    104.59058 
    5800    26845    297.70933   -1868.3028   -2947721.6    23821.768   -2923899.8    286604.49    1.0497455    52.330032    52.330032    104.66006 
    5900    26845    298.11236    819.14241   -2947694.9    23854.017   -2923840.8    286818.01     1.048964    52.343024    52.343024    104.68605 
    6000    26845    299.41295    118.99736   -2947391.1    23958.086     -2923433    286980.07    1.0483716    52.352881    52.352881    104.70576 
    6100    26845    303.70211    263.62269   -2947324.2    24301.291   -2923022.9    287426.82    1.0467422    52.380032    52.380032    104.76006 
    6200    26845    300.08393    1902.3494   -2947044.5    24011.775   -2923032.8    288451.56    1.0430235    52.442208    52.442208    104.88442 
    6300    26845    298.45831   -31.880648   -2947050.7    23881.698     -2923169       289722    1.0384498    52.519086    52.519086    105.03817 
    6400    26845    300.46342    1473.4554   -2947115.7    24042.141   -2923073.6    290549.08    1.0354938    52.569015    52.569015    105.13803 
    6500    26845    301.46017     891.6734     -2947100    24121.898   -2922978.1    291136.17    1.0334057    52.604398    52.604398     105.2088 
    6600    26845    300.25006    750.34514     -2947002    24025.069     -2922977    291820.93    1.0309808    52.645608    52.645608    105.29122 
    6700    26845    300.64507   -716.60745   -2947118.4    24056.676   -2923061.7    292408.61    1.0289087    52.680924    52.680924    105.36185 
    6800    26845     299.8913   -1261.1152   -2947143.1    23996.362   -2923146.7    292922.32    1.0271043    52.711757    52.711757    105.42351 
    6900    26845    299.93324   -1145.3475   -2947003.8    23999.717     -2923004    293296.26    1.0257948    52.734177    52.734177    105.46835 
    7000    26845    303.09346   -924.03934   -2947024.8    24252.588   -2922772.2    293180.31    1.0262005    52.727228    52.727228    105.45446 
    7100    26845    303.59635   -996.54757   -2947177.9    24292.828   -2922885.1    292645.35    1.0280764    52.695138    52.695138    105.39028 
    7200    26845    298.96127    231.13361   -2947217.6    23921.944   -2923295.7    292134.31    1.0298748    52.664446    52.664446    105.32889 
    7300    26845    297.25079    382.54533   -2947226.3    23785.076   -2923441.3    291465.37    1.0322385    52.624218    52.624218    105.24844 
    7400    26845     300.3099    46.734224   -2947206.7    24029.856   -2923176.9    290669.88    1.0350634    52.576299    52.576299     105.1526 
    7500    26845    300.96144    1250.9986   -2946973.4    24081.991   -2922891.4    289829.37    1.0380652    52.525573    52.525573    105.05115 
    7600    26845    304.66205   -2023.0205     -2947263    24378.102   -2922884.9    289464.44    1.0393739    52.503519    52.503519    105.00704 
    7700    26845    299.46551    1405.1082   -2947376.5    23962.291   -2923414.2    288790.82    1.0417983    52.462759    52.462759    104.92552 
    7800    26845    297.02615    1015.5393   -2947562.8    23767.101   -2923795.7    288397.88    1.0432177    52.438954    52.438954    104.87791 
    7900    26845    298.97092    1634.5958   -2947615.2    23922.716   -2923692.5    287962.52    1.0447949    52.412554    52.412554    104.82511 
    8000    26845     301.0781    742.32661   -2947449.1    24091.325   -2923357.7    287575.53    1.0462009    52.389065    52.389065    104.77813 
    8100    26845    301.81016   -1742.3584   -2947261.5    24149.903   -2923111.6    287328.53    1.0471002    52.374061    52.374061    104.74812 
    8200    26845    302.03882   -559.42495   -2947315.3    24168.199   -2923147.1    286845.75    1.0488626    52.344711    52.344711    104.68942 
    8300    26845    300.12085     599.8419   -2947467.5    24014.729   -2923452.8    286079.67    1.0516713    52.298071    52.298071    104.59614 
    8400    26845    299.20571    447.81473     -2947723    23941.503   -2923781.5    285415.36    1.0541191    52.257558    52.257558    104.51512 
    8500    26845    299.95749    732.93382   -2947971.5    24001.658   -2923969.8     284896.2      1.05604    52.225854    52.225854    104.45171 
    8600    26845    299.15735    1794.9544   -2947926.8    23937.633   -2923989.2    284381.51    1.0579512    52.194385    52.194385    104.38877 
    8700    26845    300.50773    280.24311   -2947886.3    24045.687   -2923840.6    284157.29    1.0587861    52.180664    52.180664    104.36133 
    8800    26845    299.44691   -1316.9872   -2947648.7    23960.803   -2923687.9    284110.91    1.0589589    52.177825    52.177825    104.35565 
    8900    26845    299.96768   -795.34159   -2947598.8    24002.474   -2923596.4    284080.98    1.0590705    52.175993    52.175993    104.35199 
    9000    26845    301.88531    2008.2999   -2947629.8    24155.916   -2923473.9    283941.59    1.0595904    52.167458    52.167458    104.33492 
    9100    26845    301.16285     817.4203   -2947644.3    24098.107   -2923546.2    284068.36    1.0591175     52.17522     52.17522    104.35044 
    9200    26845    298.79851   -298.19164   -2947669.7     23908.92   -2923760.7    284124.02      1.05891    52.178627    52.178627    104.35725 
    9300    26845     300.7336    292.71933   -2947886.6     24063.76   -2923822.8    283903.49    1.0597326    52.165124    52.165124    104.33025 
    9400    26845    300.04599    1440.3595   -2947834.9    24008.739   -2923826.1    283555.59    1.0610328    52.143807    52.143807    104.28761 
    9500    26845    298.80196    345.50302   -2947704.8    23909.196   -2923795.6    283632.36    1.0607456    52.148513    52.148513    104.29703 
    9600    26845    299.89413    -1638.308   -2947744.1    23996.588   -2923747.6    283767.76    1.0602395    52.156809    52.156809    104.31362 
    9700    26845    301.99364   -43.215302   -2947819.4    24164.584   -2923654.9    283892.59    1.0597732    52.164457    52.164457    104.32891 
    9800    26845    300.02838   -619.44461   -2947842.5     24007.33   -2923835.1    284167.87    1.0587466    52.181312    52.181312    104.36262 
    9900    26845    299.03386    455.67967   -2947966.8    23927.752   -2924039.1    284194.84    1.0586461    52.182962    52.182962    104.36592 
   10000    26845    297.95797   -218.36018   -2947838.4    23841.663   -2923996.7    284077.73    1.0590826    52.175794    52.175794    104.35159 
   10100    26845    300.48583    496.58317   -2947793.8    24043.934   -2923749.8    283838.29     1.059976    52.161131    52.161131    104.32226 
   10200    26845    302.05011     2054.657   -2947671.9    24169.103   -2923502.8    283595.68    1.0608828    52.146265    52.146265    104.29253 
   10300    26845    299.46202    1172.3084   -2947591.3    23962.012   -2923629.2    283698.54    1.0604981    52.152568    52.152568    104.30514 
   10400    26845    301.23088    140.69831   -2948029.8    24103.551   -2923926.3    283502.34     1.061232    52.140543    52.140543    104.28109 
   10500    26845    298.07394   -174.97075   -2948103.7    23850.942   -2924252.8    283219.53    1.0622918      52.1232      52.1232     104.2464 
   10600    26845    300.18412    1395.2549   -2948375.7    24019.792   -2924355.9    283084.65    1.0627979    52.114924    52.114924    104.22985 
   10700    26845    298.39807   -687.10775   -2948044.3    23876.878   -2924167.4    282910.24    1.0634531    52.104219    52.104219    104.20844 
   10800    26845    301.34589    931.52348   -2947880.5    24112.753   -2923767.7    282461.79    1.0651415    52.076674    52.076674    104.15335 
   10900    26845    301.10572    1228.8571   -2947595.4    24093.535   -2923501.9    282113.41    1.0664568    52.055255    52.055255    104.11051 
   11000    26845    304.56041   -1345.2309   -2947832.8    24369.969   -2923462.9    281760.93     1.067791    52.033566    52.033566    104.06713 
   11100    26845    299.88894   -509.90394   -2947889.6    23996.173   -2923893.4    281774.22    1.0677406    52.034384    52.034384    104.06877 
   11200    26845    297.36329   -1175.9724   -2948084.8    23794.078   -2924290.7    281433.76    1.0690323    52.013419    52.013419    104.02684 
   11300    26845    297.82661    -480.8826   -2948046.2    23831.152     -2924215    280856.87    1.0712281    51.977855    51.977855    103.95571 
   11400    26845    300.09431    1541.4331   -2947812.3    24012.606   -2923799.7    280316.16    1.0732944    51.944477    51.944477    103.88895 
   11500    26845    304.54373    644.60908   -2947845.8    24368.635   -2923477.2    279691.61    1.0756911    51.905871    51.905871    103.81174 
   11600    26845    302.41494    1067.2188     -2947917    24198.296   -2923718.7    279310.56    1.0771586    51.882288    51.882288    103.76458 
   11700    26845    297.75919    2061.1866   -2948126.7    23825.757   -2924300.9    278715.23    1.0794594    51.845401    51.845401     103.6908 
   11800    26845    296.73621    627.51768   -2948351.3    23743.901   -2924607.4    278260.74    1.0812225    51.817205    51.817205    103.63441 
   11900    26845    297.33697    2373.4838   -2948235.6    23791.972   -2924443.7    277823.47    1.0829243    51.790048    51.790048     103.5801 
   12000    26845    301.30285    410.26333   -2948063.9    24109.309   -2923954.6    277530.36    1.0840679    51.771828    51.771828    103.54366 
   12100    26845    300.93027    621.49273   -2947804.8    24079.497   -2923725.3    276990.22    1.0861819     51.73822     51.73822    103.47644 
   12200    26845    303.99163   -2312.3367   -2948207.1    24324.457   -2923882.7    276739.52    1.0871659    51.722606    51.722606    103.44521 
   12300    26845    298.18335   -330.91147     -2948212    23859.697   -2924352.3    276724.63    1.0872244    51.721678    51.721678    103.44336 
   12400    26845    298.00507   -1406.2094   -2948428.4    23845.431     -2924583       276608    1.0876828    51.714411    51.714411    103.42882 
   12500    26845     300.2481    808.58284   -2948481.8    24024.912   -2924456.9    276656.39    1.0874926    51.717426    51.717426    103.43485 
   12600    26845    302.39889    2739.9199     -2948483    24197.011     -2924286    276695.28    1.0873397     51.71985     51.71985     103.4397 
   12700    26845    298.08245    195.95338   -2948190.6    23851.623     -2924339    276803.96    1.0869128     51.72662     51.72662    103.45324 
   12800    26845    300.86282    212.23396   -2948250.4    24074.099   -2924176.3    276714.91    1.0872626    51.721073    51.721073    103.44215 
   12900    26845    299.19565    1141.6221   -2947982.3    23940.698   -2924041.6    276393.67    1.0885263     51.70105     51.70105     103.4021 
   13000    26845    301.12589    1066.3364   -2948019.3     24095.15   -2923924.2    276069.22    1.0898056    51.680812    51.680812    103.36162 
   13100    26845     300.3283   -664.75329   -2947980.3    24031.329     -2923949    276232.34     1.089162    51.690989    51.690989    103.38198 
   13200    26845    298.27693    1735.7596     -2948035    23867.185   -2924167.8    276406.59    1.0884754    51.701856    51.701856    103.40371 
   13300    26845    297.91792   -910.73634   -2948252.7    23838.458   -2924414.3    276233.68    1.0891567    51.691073    51.691073    103.38215 
   13400    26845      298.556    63.651118     -2948318    23889.515   -2924428.4     276039.7    1.0899221     51.67897     51.67897    103.35794 
   13500    26845    300.55094   -190.98329   -2948230.5    24049.144   -2924181.4    275914.52    1.0904166    51.671157    51.671157    103.34231 
   13600    26845    301.98355    809.97434   -2948336.9    24163.777   -2924173.1    275696.39    1.0912793    51.657537    51.657537    103.31507 
   13700    26845    298.36393   -335.67734   -2948341.5    23874.146   -2924467.4    275444.92    1.0922756    51.641826    51.641826    103.28365 
   13800    26845    298.60118    176.91969   -2948532.8     23893.13   -2924639.7    275117.98    1.0935737    51.621386    51.621386    103.24277 
   13900    26845    300.31354   -1011.8092   -2948641.2    24030.148   -2924611.1    274879.27    1.0945233    51.606452    51.606452     103.2129 
   14000    26845    301.73684    810.98426   -2948586.6    24144.036   -2924442.6    274764.46    1.0949807    51.599265    51.599265    103.19853 
   14100    26845    301.16201    1611.4913   -2948556.2     24098.04   -2924458.1    274808.91    1.0948035    51.602048    51.602048     103.2041 
   14200    26845    297.69685    -1205.223   -2948475.6    23820.769   -2924654.8    275100.79     1.093642    51.620311    51.620311    103.24062 
   14300    26845    298.73684    620.41907   -2948611.3    23903.986   -2924707.4    275188.23    1.0932945    51.625779    51.625779    103.25156 
   14400    26845    300.43943   -78.258975   -2948590.8    24040.221   -2924550.6    275418.36     1.092381    51.640166    51.640166    103.28033 
   14500    26845    300.43512   -745.61313   -2948478.2    24039.876   -2924438.3    275501.05    1.0920531    51.645333    51.645333    103.29067 
   14600    26845    301.00028   -1759.0697   -2948583.4    24085.098   -2924498.3       275487    1.0921088    51.644456    51.644456    103.28891 
   14700    26845    299.81025   -879.03335   -2948597.9    23989.876     -2924608    275342.51    1.0926819    51.635425    51.635425    103.27085 
   14800    26845    300.54465    188.64362   -2948732.2    24048.641   -2924683.5    275323.95    1.0927555    51.634265    51.634265    103.26853 
   14900    26845     299.4831   -24.082038   -2948666.7    23963.699     -2924703    275267.61    1.0929792    51.630743    51.630743    103.26149 
   15000    26845    298.81769    187.96471   -2948538.8    23910.454   -2924628.3    275168.53    1.0933728    51.624547    51.624547    103.24909 
   15100    26845    301.16067    178.32852   -2948579.8    24097.933   -2924481.8    274889.98    1.0944807    51.607122    51.607122    103.21424 
   15200    26845    301.79218    684.38352   -2948608.6    24148.464   -2924460.1     274776.8    1.0949315    51.600038    51.600038    103.20008 
   15300    26845    297.63426    173.73553   -2948433.5     23815.76   -2924617.7    274970.45    1.0941604    51.612157    51.612157    103.22431 
   15400    26845    300.44002    653.49283   -2948718.6    24040.269   -2924678.4    274700.25    1.0952366    51.595246    51.595246    103.19049 
   15500    26845    297.94307   -2720.1107   -2948662.9    23840.471   -2924822.5    274472.87    1.0961439    51.581006    51.581006    103.16201 
   15600    26845    298.78873   -489.90227   -2948656.1    23908.138     -2924748    274397.89    1.0964435    51.576309    51.576309    103.15262 
   15700    26845    297.55598   -188.63675   -2948183.8    23809.496   -2924374.3    274309.77    1.0967957    51.570787    51.570787    103.14157 
   15800    26845    302.46141    1564.7812   -2948094.5    24202.014   -2923892.5    273878.18    1.0985241    51.543726    51.543726    103.08745 
   15900    26845    303.92527    1741.9277   -2948279.8    24319.147   -2923960.7    273850.23    1.0986362    51.541973    51.541973    103.08395 
   16000    26845    300.91485    244.93702   -2948708.2    24078.263   -2924629.9    273893.16     1.098464    51.544666    51.544666    103.08933 
   16100    26845    296.82002    751.37254   -2948945.2    23750.607   -2925194.6    274110.23    1.0975941    51.558279    51.558279    103.11656 
   16200    26845     296.9628    1010.7964   -2948948.1    23762.032   -2925186.1    274294.97    1.0968549     51.56986     51.56986    103.13972 
   16300    26845    299.89689    992.60104   -2948836.7    23996.809   -2924839.9    274179.47    1.0973169    51.562621    51.562621    103.12524 
   16400    26845     302.3167    1007.6173   -2948790.7    24190.434   -2924600.2    273535.12    1.0999018    51.522196    51.522196    103.04439 
   16500    26845    297.91756    -2092.889   -2948443.6    23838.429   -2924605.2    273204.37    1.1012334    51.501421    51.501421    103.00284 
   16600    26845    301.68795    2941.4055   -2948757.3    24140.124   -2924617.1    272745.85    1.1030847    51.472594    51.472594    102.94519 
   16700    26845    300.66055   -354.16311   -2948831.3    24057.915   -2924773.3    272582.54    1.1037456    51.462318    51.462318    102.92464 
   16800    26845    300.95351   -557.11617   -2949033.4    24081.356     -2924952    272280.27    1.1049709    51.443289    51.443289    102.88658 
   16900    26845    298.66172    1059.8537   -2948953.7    23897.974   -2925055.7    271947.29    1.1063238     51.42231     51.42231    102.84462 
   17000    26845    299.76318    1387.2916   -2948961.8     23986.11   -2924975.7    271681.82    1.1074049    51.405572    51.405572    102.81114 
   17100    26845    301.53185   -1048.3714   -2948954.4    24127.633   -2924826.8    271522.11    1.1080563    51.395496    51.395496    102.79099 
   17200    26845    298.80126   -1419.5078   -2948748.3     23909.14   -2924839.1    271487.58    1.1081972    51.393318    51.393318    102.78664 
   17300    26845    300.38857   -2254.1975   -2948831.1    24036.151   -2924794.9     271040.2    1.1100264    51.365072    51.365072    102.73014 
   17400    26845    299.79154   -925.58975   -2948739.8    23988.379   -2924751.5     270749.8     1.111217    51.346721    51.346721    102.69344 
   17500    26845    299.25726   -685.74709   -2948806.1    23945.628   -2924860.5     270570.5    1.1119533    51.335384    51.335384    102.67077 
   17600    26845    300.44141    1337.5782   -2949062.1     24040.38   -2925021.7    270283.26     1.113135    51.317212    51.317212    102.63442 
   17700    26845    296.56912    808.89684   -2948882.1    23730.531   -2925151.6    270317.35    1.1129947    51.319369    51.319369    102.63874 
   17800    26845    301.72509    94.379249   -2949099.4    24143.096   -2924956.3     270443.9    1.1124738    51.327377    51.327377    102.65475 
   17900    26845    301.62853   -1316.7374   -2948934.6     24135.37   -2924799.2    270121.36    1.1138022    51.306963    51.306963    102.61393 
   18000    26845    301.46721    856.34129   -2948962.3    24122.461   -2924839.9    269752.32     1.115326    51.283588    51.283588    102.56718 
   18100    26845    298.48565    -881.7951     -2948906    23883.886   -2925022.1    269635.37    1.1158098    51.276175    51.276175    102.55235 
   18200    26845    297.58263    695.83707   -2949028.5    23811.629   -2925216.9    269426.85    1.1166733    51.262953    51.262953    102.52591 
   18300    26845     300.3017   -1556.2992     -2949328    24029.201   -2925298.8    269534.28    1.1162282    51.269766    51.269766    102.53953 
   18400    26845    302.18384    152.36749   -2949400.3    24179.803   -2925220.5    269254.17    1.1173894       51.252       51.252      102.504 
   18500    26845     298.0957   -2399.6185   -2949085.4    23852.684   -2925232.8    269132.37    1.1178952     51.24427     51.24427    102.48854 
   18600    26845    298.90847   -974.11891   -2948964.3    23917.719   -2925046.6    268902.23    1.1188519    51.229659    51.229659    102.45932 
   18700    26845    300.91726   -779.18056   -2948911.2    24078.456   -2924832.7    268618.86    1.1200322    51.211658    51.211658    102.42332 
   18800    26845    301.34171   -734.32962   -2948891.6    24112.419   -2924779.2    268583.18     1.120181     51.20939     51.20939    102.41878 
   18900    26845    299.40634    1640.0415   -2948788.6    23957.557   -2924831.1     269210.6    1.1175703    51.249235    51.249235    102.49847 
   19000    26845    301.07619    1692.4108     -2948986    24091.173   -2924894.8    269414.91    1.1167228    51.262196    51.262196    102.52439 
   19100    26845    298.86748   -627.55928   -2948900.8    23914.439   -2924986.4    269175.46    1.1177162    51.247005    51.247005    102.49401 
   19200    26845    299.64144    59.068636   -2949010.6    23976.369   -2925034.2     268668.5    1.1198253    51.214812    51.214812    102.42962 
   19300    26845     302.5736   -442.09887   -2949274.1    24210.991   -2925063.1     268175.8    1.1218826    51.183486    51.183486    102.36697 
   19400    26845    299.11535    1590.9086   -2949205.5    23934.273   -2925271.2    267744.62    1.1236893     51.15604     51.15604    102.31208 
   19500    26845    298.57492    237.11406   -2949267.5    23891.029   -2925376.5    268104.17    1.1221824    51.178929    51.178929    102.35786 
   19600    26845    298.55069   -188.54568   -2949199.1     23889.09     -2925310    268157.67    1.1219585    51.182333    51.182333    102.36467 
   19700    26845    299.32885   -894.74187   -2949040.7    23951.356   -2925089.4    267885.78    1.1230972    51.165029    51.165029    102.33006 
   19800    26845    301.56204    66.752868   -2948953.2    24130.049   -2924823.2    267369.75    1.1252648    51.132154    51.132154    102.26431 
   19900    26845    301.26015    1076.3211   -2948905.4    24105.893   -2924799.5    267005.42    1.1268002    51.108919    51.108919    102.21784 
   20000    26845    300.86932   -437.25266   -2949075.5    24074.619   -2925000.9    266752.33    1.1278693    51.092765    51.092765    102.18553 
   20100    26845    297.59965   -1027.0445   -2949172.5    23812.991   -2925359.5    266365.75    1.1295062    51.068072    51.068072    102.13614 
   20200    26845    296.28887   -1516.6552   -2949238.9    23708.106   -2925530.8    266052.51    1.1308361    51.048046    51.048046    102.09609 
   20300    26845    299.75211   -1978.7819   -2949328.9    23985.224   -2925343.7    266038.34    1.1308963     51.04714     51.04714    102.09428 
   20400    26845     299.8951    1311.9125   -2949082.5    23996.666   -2925085.9    266246.98    1.1300101     51.06048     51.06048    102.12096 
   20500    26845     300.9343     668.8368   -2949022.3     24079.82   -2924942.5    266374.93    1.1294673    51.068658    51.068658    102.13732 
   20600    26845    301.44944    -3.681785   -2949079.1    24121.039   -2924958.1    266408.92    1.1293232    51.070831    51.070831    102.14166 
   20700    26845    299.19218    242.55256   -2949063.8     23940.42   -2925123.4    266552.39    1.1287154    51.079997    51.079997    102.15999 
   20800    26845    299.11635    21.387889   -2949179.1    23934.353   -2925244.7    266522.95      1.12884    51.078116    51.078116    102.15623 
   20900    26845      297.209    99.152163   -2949103.9    23781.733   -2925322.2    266245.49    1.1300164    51.060385    51.060385    102.12077 
   21000    26845    301.13186    924.26059   -2949344.1    24095.627   -2925248.4    266170.34    1.1303355    51.055581    51.055581    102.11116 
   21100    26845    299.54013    220.94156   -2949143.5    23968.262   -2925175.2    266194.81    1.1302315    51.057145    51.057145    102.11429 
   21200    26845    302.70316    1812.7395   -2949274.7    24221.358   -2925053.3    266339.12    1.1296192     51.06637     51.06637    102.13274 
   21300    26845     301.1813    264.15025   -2949286.4    24099.584   -2925186.8    266322.16    1.1296911    51.065286    51.065286    102.13057 
   21400    26845    297.63227   -1692.0373   -2949184.6    23815.601     -2925369    266179.08    1.1302983     51.05614     51.05614    102.11228 
   21500    26845    299.51817    741.18965   -2949202.8    23966.505   -2925236.2    266115.03    1.1305704    51.052044    51.052044    102.10409 
   21600    26845    300.61295   -1071.3311   -2948979.5    24054.106   -2924925.3    266337.76    1.1296249    51.066283    51.066283    102.13257 
   21700    26845    302.50813    606.55315   -2948975.2    24205.753   -2924769.4    266426.43     1.129249     51.07195     51.07195     102.1439 
   21800    26845    300.82599   -534.82286   -2949023.5    24071.153   -2924952.4    266371.48    1.1294819    51.068438    51.068438    102.13688 
   21900    26845    299.55215   -1595.0344   -2949176.6    23969.224   -2925207.4    266284.49    1.1298509    51.062879    51.062879    102.12576 
   22000    26845    297.82474   -265.32306   -2949272.5    23831.002   -2925441.4    265903.33    1.1314705    51.038503    51.038503    102.07701 
   22100    26845    298.00691    -1445.654   -2949285.5    23845.578     -2925440    265876.62    1.1315842    51.036794    51.036794    102.07359 
   22200    26845    299.79711   -885.72169   -2949150.6    23988.825   -2925161.8    265878.98    1.1315741    51.036945    51.036945    102.07389 
   22300    26845     303.0454    68.255789   -2949105.8    24248.743   -2924857.1    265423.51    1.1335159    51.007785    51.007785    102.01557 
   22400    26845    301.70207    409.11553   -2949143.4    24141.253   -2925002.2    264815.34    1.1361191    50.968796    50.968796    101.93759 
   22500    26845    297.23044    1272.8639   -2949230.9    23783.448   -2925447.4    264517.87    1.1373968    50.949705    50.949705    101.89941 
   22600    26845    297.53646    446.17456   -2949469.5    23807.935   -2925661.6    264762.11    1.1363475    50.965381    50.965381    101.93076 
   22700    26845    297.50816   -755.40952   -2949396.6     23805.67   -2925590.9    264907.55    1.1357237    50.974712    50.974712    101.94942 
   22800    26845    300.87603    981.78373     -2949381    24075.157   -2925305.9    265096.38    1.1349147    50.986821    50.986821    101.97364 
   22900    26845    301.68126    1481.8947   -2949245.3    24139.588   -2925105.7     265070.5    1.1350255    50.985161    50.985161    101.97032 
   23000    26845    298.78078   -3940.8313   -2949072.8    23907.502   -2925165.3    264938.37    1.1355916    50.976688    50.976688    101.95338 
   23100    26845    299.19157    895.72905   -2949234.6    23940.371   -2925294.3    264586.01    1.1371039    50.954079    50.954079    101.90816 
   23200    26845    300.19184    962.74402   -2949351.8     24020.41   -2925331.4    264927.79    1.1356369     50.97601     50.97601    101.95202 
   23300    26845    301.56525   -1006.9588   -2949358.3    24130.306   -2925227.9    265307.49    1.1340116    51.000352    51.000352     102.0007 
   23400    26845     299.9074    -704.0338   -2949206.7     23997.65   -2925209.1    265170.56    1.1345972    50.991576    50.991576    101.98315 
   23500    26845     301.3757     51.59872     -2949259    24115.139   -2925143.8    265131.24    1.1347654    50.989056    50.989056    101.97811 
   23600    26845    303.26989    1314.9452   -2949367.8    24266.706   -2925101.1    265133.13    1.1347574    50.989177    50.989177    101.97835 
   23700    26845    299.15321    551.28618   -2949255.2    23937.302   -2925317.9    264951.02    1.1355373      50.9775      50.9775      101.955 
   23800    26845    298.59591   -331.28382   -2949315.2    23892.708   -2925422.5    264719.24    1.1365316     50.96263     50.96263    101.92526 
   23900    26845    300.17223   -100.07484   -2949322.3    24018.841   -2925303.5    264829.29    1.1360593    50.969692    50.969692    101.93938 
   24000    26845    301.73765   -632.03349     -2949283    24144.101   -2925138.9    264802.62    1.1361737    50.967981    50.967981    101.93596 
   24100    26845    299.42922    871.97468   -2949193.4    23959.388     -2925234    264920.95    1.1356662    50.975571    50.975571    101.95114 
   24200    26845    300.38024   -749.77025   -2949390.4    24035.485   -2925354.9     264913.6    1.1356977      50.9751      50.9751     101.9502 
   24300    26845    300.79642     103.0476   -2949529.3    24068.787   -2925460.5    264663.57    1.1367706    50.959058    50.959058    101.91812 
   24400    26845    298.42131   -1480.4716   -2949308.8    23878.738     -2925430    264256.42    1.1385221    50.932913    50.932913    101.86583 
   24500    26845    303.25093    58.689863   -2949479.7    24265.189   -2925214.5    263814.25    1.1404303    50.904489    50.904489    101.80898 
   24600    26845    304.36381    1561.8544   -2949542.4    24354.238   -2925188.2    263716.26    1.1408541    50.898186    50.898186    101.79637 
   24700    26845    298.86519    1203.7366   -2949381.8    23914.256   -2925467.5    263659.52    1.1410996    50.894536    50.894536    101.78907 
   24800    26845    299.18274   -1231.0626     -2949520    23939.665   -2925580.3    263554.67    1.1415535    50.887788    50.887788    101.77558 
   24900    26845    302.38695   -689.06318     -2949679    24196.056   -2925482.9    262935.01    1.1442439    50.847875    50.847875    101.69575 
   25000    26845    300.06583    1643.4826   -2949526.6    24010.327   -2925516.3    262455.99    1.1463323    50.816977    50.816977    101.63395 
   25100    26845    299.42719   -745.00392   -2949564.5    23959.225   -2925605.3     262351.9    1.1467871    50.810259    50.810259    101.62052 
   25200    26845    300.14002   -641.36346   -2949673.6    24016.264   -2925657.3    262428.63    1.1464518    50.815211    50.815211    101.63042 
   25300    26845    300.72167    1653.7341   -2949687.2    24062.805   -2925624.4    262589.94    1.1457475    50.825621    50.825621    101.65124 
   25400    26845    299.50515   -1104.0754   -2949563.4    23965.463   -2925597.9    262670.91    1.1453943    50.830845    50.830845    101.66169 
   25500    26845    302.02944    984.63986   -2949748.9    24167.449   -2925581.5    262327.98    1.1468916    50.808715    50.808715    101.61743 
   25600    26845    299.24502    1073.9329   -2949518.8    23944.649   -2925574.1    262272.46    1.1471345     50.80513     50.80513    101.61026 
   25700    26845    300.67193   -818.74138   -2949560.1    24058.825   -2925501.3    262422.65    1.1464779    50.814826    50.814826    101.62965 
   25800    26845    299.24636   -2103.9048   -2949441.3    23944.755   -2925496.6    262486.89    1.1461973    50.818972    50.818972    101.63794 
   25900    26845    302.25763     317.8254   -2949626.2    24185.708   -2925440.5    262911.52    1.1443461    50.846361    50.846361    101.69272 
   26000    26845    298.61612    1201.7822   -2949433.9    23894.325   -2925539.5    263126.32    1.1434119    50.860204    50.860204    101.72041 
   26100    26845    300.11008    2714.2333   -2949642.6    24013.868   -2925628.7    263101.78    1.1435186    50.858623    50.858623    101.71725 
   26200    26845    297.38735   -73.871529   -2949470.5    23796.003   -2925674.5    263146.91    1.1433225    50.861531    50.861531    101.72306 
   26300    26845    299.01144   -3146.9427   -2949487.6    23925.958   -2925561.6    263087.16    1.1435821    50.857681    50.857681    101.71536 
   26400    26845    301.55901    288.09146   -2949507.4    24129.806   -2925377.6    262758.98    1.1450104    50.836525    50.836525    101.67305 
   26500    26845    303.24492   -1365.0992   -2949660.9    24264.708   -2925396.2    262366.21    1.1467245    50.811183    50.811183    101.62237 
   26600    26845    299.74003   -415.65554   -2949604.7    23984.258   -2925620.5    262386.54    1.1466357    50.812495    50.812495    101.62499 
   26700    26845    297.65021    41.733706   -2949528.2    23817.037   -2925711.2    262715.99    1.1451978    50.833752    50.833752     101.6675 
   26800    26845    299.55923    221.30151   -2949441.5     23969.79   -2925471.7    263101.06    1.1435217    50.858577    50.858577    101.71715 
   26900    26845    303.02589     288.8743   -2949515.5    24247.182   -2925268.3    263252.92     1.142862     50.86836     50.86836    101.73672 
   27000    26845    301.46511    -1188.887     -2949552    24122.293   -2925429.7    263114.62    1.1434628     50.85945     50.85945     101.7189 
   27100    26845    298.31066    73.566975   -2949563.6    23869.883   -2925693.7     263114.8     1.143462    50.859462    50.859462    101.71892 
   27200    26845    298.41066    941.98258     -2949626    23877.885   -2925748.1    262924.82    1.1442882    50.847218    50.847218    101.69444 
   27300    26845    300.80245   -1223.1721     -2949709    24069.269   -2925639.8    263070.17     1.143656    50.856586    50.856586    101.71317 
   27400    26845    300.02016   -268.27671   -2949606.2    24006.673   -2925599.6    262806.52    1.1448033    50.839591    50.839591    101.67918 
   27500    26845    301.28655   -749.54587   -2949756.2    24108.006   -2925648.2    262102.55    1.1478781    50.794156    50.794156    101.58831 
   27600    26845    298.84425   -552.35189   -2949705.3     23912.58   -2925792.7    261572.16    1.1502056    50.759871    50.759871    101.51974 
   27700    26845    299.05027    666.48512   -2949702.4    23929.065   -2925773.3    261588.34    1.1501345    50.760918    50.760918    101.52184 
   27800    26845    301.67391    372.92124   -2949709.9    24139.001   -2925570.9    261905.96    1.1487397    50.781454    50.781454    101.56291 
   27900    26845    302.05606    71.199759   -2949545.6    24169.579     -2925376    261995.78    1.1483459    50.787258    50.787258    101.57452 
   28000    26845    301.75243   -1356.1865   -2949528.4    24145.283   -2925383.2       261638    1.1499162     50.76413     50.76413    101.52826 
   28100    26845    299.61504   -892.69798   -2949562.6    23974.256   -2925588.3    261250.81    1.1516204    50.739075    50.739075    101.47815 
   28200    26845    298.84749    553.60229   -2949774.4    23912.839   -2925861.5    261045.75     1.152525    50.725797    50.725797    101.45159 
   28300    26845     296.4701    930.54451   -2949685.1    23722.608   -2925962.5    261045.96    1.1525242     50.72581     50.72581    101.45162 
   28400    26845    300.96358     376.1227   -2949859.7    24082.162   -2925777.6    261116.91     1.152211    50.730405    50.730405    101.46081 
   28500    26845    301.47369     260.5949     -2949719    24122.979   -2925596.1    261343.68    1.1512112    50.745087    50.745087    101.49017 
   28600    26845    301.96105   -779.63693   -2949723.3    24161.976   -2925561.3    261579.15    1.1501749    50.760323    50.760323    101.52065 
   28700    26845    300.77716   -235.30904   -2949708.6    24067.245   -2925641.4    261762.79     1.149368    50.772199    50.772199     101.5444 
   28800    26845    302.87012    521.89958   -2949948.6    24234.718   -2925713.9    261581.47    1.1501647    50.760473    50.760473    101.52095 
   28900    26845    299.32468   -1011.7039   -2949829.1    23951.023   -2925878.1    261272.21    1.1515261    50.740461    50.740461    101.48092 
   29000    26845    299.63326   -270.25238   -2949828.6    23975.714   -2925852.9    260715.92    1.1539831    50.704424    50.704424    101.40885 
   29100    26845     298.6492    2335.3915   -2949528.9    23896.973   -2925631.9       260358    1.1555695     50.68121     50.68121    101.36242 
   29200    26845    302.18354    1753.1087   -2949638.2    24179.779   -2925458.4    260361.79    1.1555527    50.681456    50.681456    101.36291 
   29300    26845    302.00201   -42.395442   -2949732.7    24165.254   -2925567.5    260204.78      1.15625    50.671267    50.671267    101.34253 
   29400    26845    300.60988   -1146.4809   -2949872.3     24053.86   -2925818.5    259972.62    1.1572825    50.656192    50.656192    101.31238 
   29500    26845    298.59813   -1738.2677   -2949774.6    23892.886   -2925881.7    259913.37    1.1575463    50.652343    50.652343    101.30469 
   29600    26845    301.04031     -674.417   -2949828.9    24088.302   -2925740.6    259840.81    1.1578696    50.647629    50.647629    101.29526 
   29700    26845    301.85654   -656.49173   -2949791.5    24153.614   -2925637.9    259927.17    1.1574849     50.65324     50.65324    101.30648 
   29800    26845    301.12817   -1929.9078     -2949591    24095.332   -2925495.6    260263.64    1.1559885    50.675087    50.675087    101.35017 
   29900    26845    301.47116   -1572.3307   -2949422.3    24122.777   -2925299.5    260562.45    1.1546628    50.694473    50.694473    101.38895 
   30000    26845     299.7862   -754.93018   -2949503.7    23987.952   -2925515.7    260904.81    1.1531477    50.716666    50.716666    101.43333 
   30100    26845     298.0835    836.45632   -2949565.4    23851.707   -2925713.6    261015.05    1.1526606    50.723808    50.723808    101.44762 
   30200    26845    300.77362   -342.75565   -2949797.4    24066.962   -2925730.4    260960.05    1.1529036    50.720245    50.720245    101.44049 
   30300    26845    298.25681    774.78142   -2949620.8    23865.575   -2925755.2    260463.08    1.1551033    50.688027    50.688027    101.37605 
   30400    26845      299.849   -137.35779     -2949523    23992.977     -2925530    260611.73    1.1544445    50.697669    50.697669    101.39534 
   30500    26845    301.73146    2791.9678   -2949571.7    24143.605   -2925428.1    260356.89    1.1555744    50.681139    50.681139    101.36228 
   30600    26845    300.94762   -473.61518   -2949758.6    24080.885   -2925677.7    260077.14    1.1568174     50.66298     50.66298    101.32596 
   30700    26845    298.70616    750.98754   -2949688.8     23901.53   -2925787.3    259874.04    1.1577215    50.649788    50.649788    101.29958 
   30800    26845    300.21757    160.11911   -2949727.6    24022.469   -2925705.1    259482.35    1.1594691    50.624329    50.624329    101.24866 
   30900    26845    299.30135    169.21313   -2949671.4    23949.156   -2925722.2    259365.32    1.1599923    50.616717    50.616717    101.23343 
   31000    26845    299.14439    114.74611     -2949772    23936.596   -2925835.4    259563.42     1.159107      50.6296      50.6296     101.2592 
   31100    26845    298.85735   -2290.8983   -2949972.1    23913.628   -2926058.5    259598.46    1.1589505    50.631878    50.631878    101.26376 
   31200    26845    295.74928   -480.85473   -2949788.9     23664.93   -2926123.9    259502.75     1.159378    50.625655    50.625655    101.25131 
   31300    26845    300.74095   -711.81148   -2949877.5    24064.348   -2925813.2    259558.12    1.1591306    50.629256    50.629256    101.25851 
   31400    26845    300.95245    1099.3499   -2949783.2    24081.272   -2925701.9    259796.99    1.1580649    50.644782    50.644782    101.28956 
   31500    26845    299.29634    10.664349   -2949740.5    23948.755   -2925791.8     260074.3    1.1568301    50.662795    50.662795    101.32559 
   31600    26845    298.46749   -519.37951   -2949752.1    23882.433   -2925869.7    260248.71    1.1560548    50.674118    50.674118    101.34824 
   31700    26845    300.29655   -152.35836     -2949821    24028.789   -2925792.2    260078.06    1.1568134    50.663039    50.663039    101.32608 
   31800    26845    302.17134    42.134555   -2949698.3    24178.804   -2925519.5    260188.99    1.1563201    50.670241    50.670241    101.34048 
   31900    26845    301.63037    416.49597   -2949666.5    24135.516     -2925531     260071.6    1.1568421     50.66262     50.66262    101.32524 
   32000    26845    300.16159   -335.82053   -2949817.9    24017.989   -2925799.9    259768.04    1.1581939    50.642901    50.642901     101.2858 
   32100    26845    300.16904   -1093.5289   -2949913.8    24018.585   -2925895.2    259515.68    1.1593202    50.626496    50.626496    101.25299 
   32200    26845    299.78609    890.14793     -2949909    23987.943   -2925921.1    259478.09    1.1594881    50.624052    50.624052     101.2481 
   32300    26845    298.05335   -566.48529   -2949766.4    23849.294   -2925917.1     259544.7    1.1591906    50.628383    50.628383    101.25677 
   32400    26845    300.68961   -1418.5337   -2949658.9     24060.24   -2925598.6    259506.14    1.1593628    50.625876    50.625876    101.25175 
   32500    26845     302.1207    3306.9742     -2949711    24174.752   -2925536.3    259741.63    1.1583117    50.641184    50.641184    101.28237 
   32600    26845    299.92073    40.042124   -2949679.6    23998.717   -2925680.8    259787.03    1.1581093    50.644135    50.644135    101.28827 
   32700    26845    300.83288   -185.22765   -2949868.9    24071.704   -2925797.2     259978.9    1.1572546      50.6566      50.6566     101.3132 
   32800    26845    300.06941    1562.3326     -2949961    24010.613   -2925950.4    260020.84    1.1570679    50.659324    50.659324    101.31865 
   32900    26845    297.38207   -1815.3128     -2950039    23795.581   -2926243.4    260177.88    1.1563695     50.66952     50.66952    101.33904 
   33000    26845    296.75668    998.52253   -2949880.2    23745.539   -2926134.6    260069.56    1.1568512    50.662488    50.662488    101.32498 
   33100    26845    302.51281   -1226.7869   -2950158.5    24206.127   -2925952.3    259963.17    1.1573246    50.655578    50.655578    101.31116 
   33200    26845    299.63207    2862.6822   -2950005.2    23975.619   -2926029.6    259941.71    1.1574202    50.654184    50.654184    101.30837 
   33300    26845    299.48256    2873.3112   -2950030.3    23963.655   -2926066.7    260113.01    1.1566579    50.665308    50.665308    101.33062 
   33400    26845    300.10526    1806.5281   -2949905.5    24013.482     -2925892    260467.88     1.155082    50.688339    50.688339    101.37668 
   33500    26845    300.53768    491.10734   -2949664.4    24048.083   -2925616.4    260390.66    1.1554246     50.68333     50.68333    101.36666 
   33600    26845    302.45618    1346.1694   -2949883.5    24201.596   -2925681.9    260458.06    1.1551256    50.687702    50.687702     101.3754 
   33700    26845    299.63584   -463.75639     -2949867     23975.92   -2925891.1    260522.27    1.1548409    50.691867    50.691867    101.38373 
   33800    26845    298.90161   -599.44602   -2949803.3     23917.17   -2925886.1    260560.13    1.1546731    50.694322    50.694322    101.38864 
   33900    26845    300.82802    2312.5669   -2949805.7    24071.315   -2925734.4    260098.52    1.1567223    50.664368    50.664368    101.32874 
   34000    26845    302.30498    1878.7457   -2949884.4    24189.497   -2925694.9    259783.42    1.1581254      50.6439      50.6439     101.2878 
   34100    26845    302.02923   -986.55545   -2949915.9    24167.432   -2925748.4    259746.82    1.1582886    50.641522    50.641522    101.28304 
   34200    26845    299.75617   -1242.9411   -2949819.7    23985.549   -2925834.2    259795.42    1.1580719     50.64468     50.64468    101.28936 
   34300    26845    300.49108    2115.7332   -2949879.6    24044.354   -2925835.3    259949.95    1.1573835    50.654719    50.654719    101.30944 
   34400    26845    300.06413     -304.043   -2949808.9    24010.191   -2925798.7    260090.46    1.1567582    50.663844    50.663844    101.32769 
   34500    26845    301.14498   -449.90103   -2949633.7    24096.677     -2925537    260067.84    1.1568588    50.662376    50.662376    101.32475 
   34600    26845    301.87726     2422.989   -2949680.6    24155.272   -2925525.3    259752.88    1.1582615    50.641916    50.641916    101.28383 
   34700    26845    300.89249    238.26648   -2949868.1    24076.474   -2925791.6    259729.92    1.1583639    50.640423    50.640423    101.28085 
   34800    26845    298.20677   -805.35564   -2949770.5     23861.57   -2925908.9    259678.14    1.1585949    50.637058    50.637058    101.27412 
   34900    26845    299.37009     1551.846   -2949855.8    23954.656   -2925901.2    259521.85    1.1592926    50.626897    50.626897    101.25379 
   35000    26845    300.47667    1568.1518     -2949761    24043.201   -2925717.8    259220.14    1.1606419    50.607271    50.607271    101.21454 
   35100    26845    301.69494   -896.58689   -2949800.5    24140.683   -2925659.8    258845.01     1.162324    50.582846    50.582846    101.16569 
   35200    26845    299.96168     123.7073   -2949994.5    24001.993   -2925992.5    258562.26    1.1635951    50.564422    50.564422    101.12884 
   35300    26845     298.5307   -937.42811   -2950029.5    23887.491     -2926142    258556.29    1.1636219    50.564033    50.564033    101.12807 
   35400    26845    300.09166    882.14358   -2949962.9    24012.394   -2925950.5    258527.63    1.1637509    50.562165    50.562165    101.12433 
   35500    26845    302.49475   -868.95048   -2949947.8    24204.681   -2925743.2    258630.35    1.1632887     50.56886     50.56886    101.13772 
   35600    26845    300.29162   -1262.1004   -2949769.6    24028.394   -2925741.2     258522.8    1.1637727     50.56185     50.56185     101.1237 
   35700    26845    299.67564    -935.7431   -2949801.6    23979.105   -2925822.5    258148.88    1.1654584    50.537461    50.537461    101.07492 
   35800    26845    298.13311    1182.2326     -2949755    23855.676   -2925899.4    258061.46    1.1658532    50.531755    50.531755    101.06351 
   35900    26845    298.67845    1506.3139   -2949881.9    23899.313   -2925982.6    258026.98     1.166009    50.529504    50.529504    101.05901 
   36000    26845    301.73895   -2233.7509   -2950156.5    24144.205   -2926012.3    257857.15    1.1667769    50.518416    50.518416    101.03683 
   36100    26845     298.6878   -349.60099   -2949975.8    23900.061   -2926075.7     257536.3    1.1682306    50.497454    50.497454    100.99491 
   36200    26845    299.63571   -872.52492   -2950039.7     23975.91   -2926063.8    257473.28    1.1685165    50.493335    50.493335    100.98667 
   36300    26845     300.8456    2027.8722   -2950026.1    24072.722   -2925953.3    257570.79    1.1680741    50.499709    50.499709    100.99942 
   36400    26845     302.4553   -350.80837   -2950062.2    24201.525   -2925860.7    257615.68    1.1678706    50.502642    50.502642    101.00528 
   36500    26845    298.92773   -1024.3836   -2950006.3     23919.26   -2926087.1     257483.8    1.1684687    50.494023    50.494023    100.98805 
   36600    26845    297.83781    987.00945   -2950022.9    23832.048   -2926190.9    257133.87    1.1700589    50.471138    50.471138    100.94228 
   36700    26845    300.45585   -729.23389   -2950074.5    24041.535   -2926032.9    257235.73    1.1695956    50.477801    50.477801     100.9556 
   36800    26845    302.88958   -1525.4715   -2950053.8    24236.275   -2925817.5    257144.71    1.1700096    50.471847    50.471847    100.94369 
   36900    26845    302.05044   -1422.8327   -2949944.5    24169.129   -2925775.4    257032.48    1.1705204    50.464504    50.464504    100.92901 
   37000    26845     301.8393   -1638.2145     -2950060    24152.235   -2925907.8    256995.65    1.1706882    50.462093    50.462093    100.92419 
   37100    26845    300.09782   -422.89125   -2950186.3    24012.887   -2926173.4    257048.21    1.1704488    50.465533    50.465533    100.93107 
   37200    26845    297.44419    2062.6778   -2950092.6    23800.551     -2926292    257029.61    1.1705335    50.464316    50.464316    100.92863 
   37300    26845    299.20815   -771.04776   -2950103.6    23941.698   -2926161.9     257444.3     1.168648    50.491441    50.491441    100.98288 
   37400    26845    301.08183    781.14014   -2950049.8    24091.624   -2925958.1    257646.64    1.1677303    50.504665    50.504665    101.00933 
   37500    26845    300.65965   -327.60143   -2949992.8    24057.843   -2925934.9    257665.01     1.167647    50.505866    50.505866    101.01173 
   37600    26845    300.79365   -497.87638   -2950029.7    24068.565   -2925961.1    257555.16     1.168145    50.498687    50.498687    100.99737 
   37700    26845    300.64827    250.44986   -2950061.7    24056.932   -2926004.8    257352.52    1.1690648     50.48544     50.48544    100.97088 
   37800    26845    298.42488    1671.4245   -2950044.7    23879.023   -2926165.7    257367.61    1.1689962    50.486427    50.486427    100.97285 
   37900    26845    298.86978    1762.1923   -2950108.9    23914.623   -2926194.3    257297.36    1.1693154    50.481833    50.481833    100.96367 
   38000    26845    300.87086    2510.8807   -2950171.1    24074.743   -2926096.3     256972.9    1.1707918    50.460604    50.460604    100.92121 
   38100    26845    301.88673   -1755.4543     -2950058     24156.03   -2925901.9     256482.1    1.1730323    50.428458    50.428458    100.85692 
   38200    26845    301.99655   -1962.9478   -2949967.7    24164.817   -2925802.9    256290.19    1.1739106    50.415877    50.415877    100.83175 
   38300    26845    299.54698   -910.69881   -2950069.5     23968.81   -2926100.7    256278.57    1.1739638    50.415115    50.415115    100.83023 
   38400    26845    298.93563   -1116.6929     -2950152    23919.892   -2926232.1     256511.8    1.1728964    50.430404    50.430404    100.86081 
   38500    26845    299.17921    2019.5862   -2950153.3    23939.383   -2926213.9    256376.06    1.1735174    50.421507    50.421507    100.84301 
   38600    26845    302.01242    551.63834     -2950287    24166.087   -2926120.9    256171.17     1.174456    50.408072    50.408072    100.81614 
   38700    26845    299.32956    186.88091   -2949956.6    23951.413   -2926005.1    256099.12    1.1747865    50.403345    50.403345    100.80669 
   38800    26845    300.84265    1535.4509     -2949899    24072.486   -2925826.6    256116.96    1.1747046    50.404516    50.404516    100.80903 
   38900    26845    301.52396    1769.0181   -2949908.7    24127.002   -2925781.7    256269.85    1.1740038    50.414544    50.414544    100.82909 
   39000    26845    299.23082     3845.594   -2950012.1    23943.512   -2926068.6    256280.71     1.173954    50.415256    50.415256    100.83051 
   39100    26845    299.93051   -137.46478   -2950205.3    23999.499   -2926205.8    256442.84    1.1732118    50.425885    50.425885    100.85177 
   39200    26845     299.8598     -180.571   -2950203.1    23993.841   -2926209.3     256699.5    1.1720388    50.442702    50.442702     100.8854 
   39300    26845    301.17882   -236.86831   -2950148.9    24099.385   -2926049.6    257082.98    1.1702905    50.467808    50.467808    100.93562 
   39400    26845    303.20817    276.80578   -2950048.7    24261.767   -2925786.9    257142.09    1.1700215    50.471676    50.471676    100.94335 
   39500    26845    299.22324    562.69439   -2949940.7    23942.906   -2925997.8    257119.38    1.1701248     50.47019     50.47019    100.94038 
   39600    26845     301.1943   -74.559713     -2950217    24100.623   -2926116.4     256923.1    1.1710187    50.457344    50.457344    100.91469 
   39700    26845    300.67612   -304.30871   -2950229.5     24059.16   -2926170.4    256802.37    1.1715693    50.449439    50.449439    100.89888 
   39800    26845    300.10917   -597.84459   -2950299.1    24013.795   -2926285.3    256785.12     1.171648    50.448309    50.448309    100.89662 
   39900    26845    298.09644    1142.9816   -2950225.5    23852.742   -2926372.8    256796.59    1.1715957    50.449061    50.449061    100.89812 
   40000    26845    301.07958   -233.73857   -2950132.5    24091.444   -2926041.1     256870.5    1.1712586      50.4539      50.4539     100.9078 
   40100    26845    300.36404   -1115.9781   -2949975.6    24034.188   -2925941.4    256977.17    1.1707724    50.460883    50.460883    100.92177 
   40200    26845     300.3291   -716.34429   -2950026.1    24031.393   -2925994.7    257364.27    1.1690114    50.486208    50.486208    100.97242 
   40300    26845    299.85129   -1565.0588   -2950174.4     23993.16   -2926181.2    257251.35    1.1695246    50.478823    50.478823    100.95765 
   40400    26845    299.55673   -596.62855   -2950312.4    23969.591   -2926342.8    257237.84     1.169586     50.47794     50.47794    100.95588 
   40500    26845    299.89178   -1648.3992   -2950339.7      23996.4   -2926343.3    257498.91    1.1684002     50.49501     50.49501    100.99002 
   40600    26845      302.194    461.40466   -2950167.5    24180.617   -2925986.9    257694.26    1.1675144    50.507777    50.507777    101.01555 
   40700    26845    302.30193    1151.5663   -2950090.2    24189.253   -2925900.9    257572.25    1.1680675    50.499804    50.499804    100.99961 
   40800    26845    299.95136   -2265.2112   -2950039.7    24001.167   -2926038.6    257156.26     1.169957    50.472603    50.472603    100.94521 
   40900    26845    300.31081    1748.7434   -2950244.9     24029.93     -2926215    256429.89    1.1732711    50.425036    50.425036    100.85007 
   41000    26845    299.19267     1827.304   -2950408.4    23940.459   -2926467.9    255713.14    1.1765597    50.378011    50.378011    100.75602 
   41100    26845    298.85166   -156.71553   -2950386.8    23913.173   -2926473.6    255612.47     1.177023    50.371399    50.371399     100.7428 
   41200    26845    299.62293   -1645.3072   -2950276.4    23974.887   -2926301.5    255876.38    1.1758091    50.388728    50.388728    100.77746 
   41300    26845      301.656   -802.09396   -2950271.8    24137.567   -2926134.2    256021.53    1.1751425    50.398255    50.398255    100.79651 
   41400    26845    300.46376    1027.7801   -2950082.5    24042.168   -2926040.4    255727.44    1.1764939     50.37895     50.37895     100.7579 
   41500    26845    302.59883    1315.1685   -2950184.5     24213.01   -2925971.5    255428.53    1.1778707    50.359314    50.359314    100.71863 
   41600    26845    300.01899    420.43186   -2950325.4    24006.579   -2926318.8    255604.41    1.1770602     50.37087     50.37087    100.74174 
   41700    26845     299.8437    2332.8091   -2950419.9    23992.553   -2926427.4    255735.13    1.1764585    50.379455    50.379455    100.75891 
   41800    26845    300.41193    898.35587   -2950360.1    24038.021     -2926322    255849.85     1.175931    50.386987    50.386987    100.77397 
   41900    26845    302.01041    591.07044     -2950356    24165.926   -2926190.1    255699.21    1.1766238    50.377096    50.377096    100.75419 
   42000    26845    299.76075   -1194.8967   -2950105.1    23985.915   -2926119.2    255783.13    1.1762377    50.382607    50.382607    100.76521 
   42100    26845    302.31387    -2362.308   -2950126.4    24190.208   -2925936.2    256197.27    1.1743364    50.409783    50.409783    100.81957 
   42200    26845    304.20029   -1241.7417   -2950122.5    24341.153   -2925781.4    256360.99    1.1735864     50.42052     50.42052    100.84104 
   42300    26845    301.41549   -556.00622   -2950111.4    24118.323   -2925993.1    256647.48    1.1722763    50.439295    50.439295    100.87859 
   42400    26845    299.88675    2931.6397   -2950148.7    23995.998   -2926152.7    256375.32    1.1735208    50.421459    50.421459    100.84292 
   42500    26845    298.50578   -281.03479   -2950033.3    23885.497   -2926147.8    256061.63    1.1749585    50.400886    50.400886    100.80177 
   42600    26845    301.28932   -101.19732   -2950148.4    24108.227   -2926040.2    255772.77    1.1762854    50.381927    50.381927    100.76385 
   42700    26845    301.62915    138.95913   -2950060.1    24135.419   -2925924.7    255824.36    1.1760482    50.385314    50.385314    100.77063 
   42800    26845    300.52739   -75.059991   -2949858.8     24047.26   -2925811.6    255613.96    1.1770162    50.371497    50.371497    100.74299 
   42900    26845    302.53804    2127.8554   -2950115.9    24208.145   -2925907.8    255501.56     1.177534    50.364113    50.364113    100.72823 
   43000    26845       300.78    2067.7925   -2950275.2    24067.473   -2926207.8    255487.79    1.1775974    50.363208    50.363208    100.72642 
   43100    26845    299.67914    108.40088   -2950260.6    23979.385   -2926281.2    255695.85    1.1766392    50.376875    50.376875    100.75375 
   43200    26845    299.82186   -1198.9448   -2950274.3    23990.805   -2926283.5     256017.7      1.17516    50.398003    50.398003    100.79601 
   43300    26845    297.92993    180.28415   -2949935.8    23839.419   -2926096.4    256466.47    1.1731037    50.427433    50.427433    100.85487 
   43400    26845     300.6578   -459.27101   -2949889.9    24057.694   -2925832.2    256699.66    1.1720381    50.442712    50.442712    100.88542 
   43500    26845    299.33983   -117.75064   -2949870.5    23952.235   -2925918.3     256872.1    1.1712513    50.454005    50.454005    100.90801 
   43600    26845    299.17346   -3383.3122     -2950095    23938.923     -2926156    256856.29    1.1713233     50.45297     50.45297    100.90594 
   43700    26845    298.12374    1830.4084   -2950089.4    23854.927   -2926234.5     256674.7    1.1721521    50.441077    50.441077    100.88215 
   43800    26845    300.16229    2625.5824   -2950180.1    24018.045   -2926162.1    256797.47    1.1715916    50.449118    50.449118    100.89824 
   43900    26845     300.3698     1221.313   -2950055.2     24034.65   -2926020.5    256801.28    1.1715743    50.449368    50.449368    100.89874 
   44000    26845    303.56987    331.52804   -2950026.4     24290.71   -2925735.7    256754.77    1.1717865    50.446322    50.446322    100.89264 
   44100    26845    302.67613   -1561.1748   -2949855.2    24219.195     -2925636    256882.49    1.1712039    50.454685    50.454685    100.90937 
   44200    26845     300.0078    590.91899   -2949927.6    24005.684     -2925922    256921.15    1.1710276    50.457217    50.457217    100.91443 
   44300    26845    302.19435    753.54628   -2950234.4    24180.645   -2926053.8    256759.83    1.1717634    50.446654    50.446654    100.89331 
   44400    26845    300.63965   -1980.9904     -2950218    24056.243   -2926161.8     256532.5    1.1728018    50.431761    50.431761    100.86352 
   44500    26845     299.3943    2525.3015   -2950235.7    23956.594   -2926279.1     256239.1    1.1741447    50.412527    50.412527    100.82505 
   44600    26845    299.10731     31.30342   -2950231.4    23933.629   -2926297.8    256284.47    1.1739368    50.415502    50.415502      100.831 
   44700    26845    301.00473    1545.5417   -2950136.4    24085.454     -2926051    256297.26    1.1738782    50.416341    50.416341    100.83268 
   44800    26845    302.00897    739.37268   -2950063.1    24165.811   -2925897.3     256259.9    1.1740494    50.413891    50.413891    100.82778 
   44900    26845    300.31899   -632.26882   -2950062.3    24030.584   -2926031.7    256102.72    1.1747699    50.403582    50.403582    100.80716 
   45000    26845    299.78711   -1422.3791   -2950193.3    23988.025   -2926205.3    255782.87    1.1762389     50.38259     50.38259    100.76518 
   45100    26845    299.99117    351.36007     -2950260    24004.353   -2926255.7    255727.13    1.1764953     50.37893     50.37893    100.75786 
   45200    26845      299.286   -12.479659   -2950206.9    23947.928   -2926258.9    255504.48    1.1775206    50.364304    50.364304    100.72861 
   45300    26845    301.63652    559.58777   -2950247.2    24136.009   -2926111.2    255515.11    1.1774715    50.365003    50.365003    100.73001 
   45400    26845    304.47552    114.94982   -2950235.9    24363.176   -2925872.7    255450.85    1.1777678     50.36078     50.36078    100.72156 
   45500    26845     302.8644   -1450.3983   -2950047.6     24234.26   -2925813.4    255541.92     1.177348    50.366764    50.366764    100.73353 
   45600    26845    300.71869    2.9257845   -2950266.5    24062.567   -2926203.9    255494.65    1.1775658    50.363659    50.363659    100.72732 
   45700    26845    299.26528   -379.12945   -2950314.6    23946.269   -2926368.3    255374.31    1.1781207     50.35575     50.35575     100.7115 
   45800    26845    298.93806    240.74266   -2950376.2    23920.087   -2926456.1    255178.88     1.179023    50.342902    50.342902     100.6858 
   45900    26845    298.05204   -1758.7355   -2950315.6     23849.19   -2926466.4    255243.49    1.1787246     50.34715     50.34715     100.6943 
   46000    26845    298.90324    1994.5476   -2950145.4      23917.3   -2926228.1    255509.42    1.1774978    50.364629    50.364629    100.72926 
   46100    26845     299.9398    42.916043   -2950036.2    24000.243     -2926036     255704.5    1.1765994    50.377444    50.377444    100.75489 
   46200    26845    298.45131    1260.7841   -2949946.1    23881.139   -2926064.9    255427.94    1.1778734    50.359275    50.359275    100.71855 
   46300    26845    299.03627   -652.72342   -2950066.8    23927.945   -2926138.9    255613.93    1.1770164    50.371495    50.371495    100.74299 
   46400    26845     297.6557   -1422.3609   -2950165.8    23817.476   -2926348.4    255672.49    1.1767467    50.375341    50.375341    100.75068 
   46500    26845    298.28653   -186.38014   -2950408.3    23867.953   -2926540.3    255170.37    1.1790623    50.342342    50.342342    100.68468 
   46600    26845    300.17544    830.32599   -2950381.3    24019.098   -2926362.3    254607.07    1.1816709     50.30527     50.30527    100.61054 
   46700    26845    299.61894    2276.5995   -2950222.6    23974.568     -2926248    253974.26    1.1846152    50.263559    50.263559    100.52712 
   46800    26845    300.04507    178.03164   -2950283.5    24008.666   -2926274.8    253729.54    1.1857578     50.24741     50.24741    100.49482 
   46900    26845    297.59433   -452.32735   -2950144.1    23812.565   -2926331.5    253968.25    1.1846432    50.263162    50.263162    100.52632 
   47000    26845     300.7162    1950.3337     -2950255    24062.367   -2926192.6    254339.88    1.1829123    50.287667    50.287667    100.57533 
   47100    26845    301.01797    -553.9454   -2950045.3    24086.515   -2925958.8    254713.93    1.1811752    50.312307    50.312307    100.62461 
   47200    26845    301.37572    1006.2863   -2950173.3     24115.14   -2926058.2    255118.73     1.179301    50.338946    50.338946    100.67789 
   47300    26845    297.55779   -135.49984   -2950175.7    23809.641     -2926366    255271.84    1.1785937    50.349014    50.349014    100.69803 
   47400    26845     300.0955   -523.33096   -2950369.1    24012.701   -2926356.4     255311.1    1.1784124    50.351595    50.351595    100.70319 
   47500    26845    299.36646    214.03174   -2950246.4    23954.366   -2926292.1    255307.43    1.1784293    50.351354    50.351354    100.70271 
   47600    26845    301.74128   -3792.7697   -2950416.7    24144.391   -2926272.3     255147.1    1.1791699    50.340812    50.340812    100.68162 
   47700    26845    300.79346    527.95617   -2950425.4     24068.55   -2926356.8    254897.92    1.1803226    50.324418    50.324418    100.64884 
   47800    26845    299.77673    2863.3772   -2950475.6    23987.194   -2926488.4    254806.24    1.1807472    50.318385    50.318385    100.63677 
   47900    26845    297.37777   -817.24992     -2950396    23795.237   -2926600.8    254681.51    1.1813256    50.310172    50.310172    100.62034 
   48000    26845    299.92533    4233.0046   -2950332.2    23999.085   -2926333.1     254641.2    1.1815125    50.307518    50.307518    100.61504 
   48100    26845    301.52924   -68.883995     -2950303    24127.424   -2926175.6    254807.94    1.1807394    50.318496    50.318496    100.63699 
   48200    26845     301.4362    670.10667   -2950252.3     24119.98   -2926132.3    254955.77    1.1800548    50.328225    50.328225    100.65645 
   48300    26845    299.83473   -1393.2916   -2950197.5    23991.835   -2926205.6    255045.41      1.17964    50.334123    50.334123    100.66825 
   48400    26845    298.68267   -1437.3539     -2950369    23899.651   -2926469.3    255166.41    1.1790806    50.342082    50.342082    100.68416 
   48500    26845    297.50687    767.48103   -2950412.4    23805.567   -2926606.8    255279.72    1.1785573    50.349532    50.349532    100.69906 
   48600    26845     300.3479   -1720.1985   -2950364.9    24032.897     -2926332    255068.36    1.1795339    50.335633    50.335633    100.67127 
   48700    26845     302.1906    3301.8144   -2950345.7    24180.344   -2926165.3    254888.77    1.1803649    50.323816    50.323816    100.64763 
   48800    26845    300.80536    61.543151   -2950303.3    24069.502   -2926233.8    254798.66    1.1807824    50.317885    50.317885    100.63577 
   48900    26845    300.11707    -2648.267     -2950407    24014.427   -2926392.6    254643.39    1.1815024    50.307662    50.307662    100.61532 
   49000    26845    297.58308    2761.4297   -2950327.3    23811.665   -2926515.6    254345.64    1.1828855    50.288046    50.288046    100.57609 
   49100    26845    300.17913   -1233.0983   -2950341.8    24019.393   -2926322.4    254340.75    1.1829082    50.287725    50.287725    100.57545 
   49200    26845    303.74777    1933.1473     -2950384    24304.944   -2926079.1    254168.64    1.1837092    50.276379    50.276379    100.55276 
   49300    26845    300.65833   -177.70978   -2950205.3    24057.737   -2926147.5    254253.69    1.1833133    50.281986    50.281986    100.56397 
   49400    26845     298.7687   -669.65929   -2950172.8    23906.535   -2926266.3     254378.6    1.1827323    50.290219    50.290219    100.58044 
   49500    26845    298.89188    1133.3488   -2950248.7    23916.391   -2926332.3     253994.3    1.1845217    50.264881    50.264881    100.52976 
   49600    26845    298.10693    464.90462   -2950334.3    23853.582   -2926480.8    253866.49    1.1851181    50.256448    50.256448     100.5129 
   49700    26845     298.2373    1790.6773   -2950605.1    23864.014   -2926741.1    253557.52    1.1865622    50.236052    50.236052     100.4721 
   49800    26845    299.56745   -1724.3726   -2950653.2    23970.448   -2926682.7    253530.86     1.186687    50.234291    50.234291    100.46858 
   49900    26845    299.66602   -814.51664   -2950427.3    23978.335     -2926449    253339.03    1.1875856    50.221618    50.221618    100.44324 
   50000    26845    301.92496   -2400.2486   -2950557.2    24159.089   -2926398.1    253469.23    1.1869755     50.23022     50.23022    100.46044 
   50100    26845    299.50511   -2607.0289     -2950356     23965.46   -2926390.6    253569.86    1.1865044    50.236867    50.236867    100.47373 
   50200    26845    299.84147    779.44336   -2950420.3    23992.374     -2926428    253617.23    1.1862829    50.239995    50.239995    100.47999 
   50300    26845    299.29249   -1070.0826   -2950480.8    23948.447   -2926532.4    253680.94    1.1859849    50.244201    50.244201     100.4884 
   50400    26845    298.12437   -127.89594   -2950445.2    23854.977   -2926590.2    253563.66    1.1865335    50.236458    50.236458    100.47292 
   50500    26845    300.78335   -163.66506   -2950505.8     24067.74     -2926438    253338.48    1.1875881    50.221582    50.221582    100.44316 
   50600    26845    303.82722   -548.21884   -2950540.9    24311.301   -2926229.6    252947.93    1.1894218    50.195761    50.195761    100.39152 
   50700    26845    300.87182   -1777.6691   -2950338.3     24074.82   -2926263.5    252777.92    1.1902217    50.184513    50.184513    100.36903 
   50800    26845    299.32815   -2608.7796   -2950540.5      23951.3   -2926589.2    252890.98    1.1896896    50.191994    50.191994    100.38399 
   50900    26845    298.43111    541.47154   -2950524.8    23879.522   -2926645.3    252986.61    1.1892399    50.198319    50.198319    100.39664 
[...]
  187600    26845    300.39787   -962.53295   -2950607.5    24036.895   -2926570.6    251092.29    1.1982119    50.072714    50.072714    100.14543 
  187700    26845    301.11254   -1750.8965   -2951022.8    24094.082   -2926928.7    250957.24    1.1988567    50.063735    50.063735    100.12747 
  187800    26845    297.85818    969.64453   -2950982.2    23833.678   -2927148.5    250634.41    1.2004009    50.042258    50.042258    100.08452 
  187900    26845    298.15859    1474.9797   -2950912.8    23857.715   -2927055.1    250752.33    1.1998364    50.050105    50.050105    100.10021 
  188000    26845    300.79187     965.5459   -2950875.2    24068.422   -2926806.8    251177.62    1.1978048    50.078385    50.078385    100.15677 
  188100    26845    301.70471    91.960822   -2950876.3    24141.465   -2926734.9    251498.64    1.1962759     50.09971     50.09971    100.19942 
  188200    26845    297.72642     736.2513   -2950681.9    23823.135   -2926858.7    251799.48    1.1948467    50.119678    50.119678    100.23936 
  188300    26845    296.88635   -867.64863   -2950750.2    23755.915   -2926994.3    251436.46    1.1965718    50.095581    50.095581    100.19116 
  188400    26845    298.21846    293.36243     -2950975    23862.506   -2927112.5    251114.23    1.1981072    50.074172    50.074172    100.14834 
  188500    26845    298.90702    233.40025   -2950968.7    23917.603   -2927051.1    250918.09    1.1990438    50.061131    50.061131    100.12226 
  188600    26845    299.75763   -660.00297   -2950790.3    23985.666   -2926804.6    250817.67    1.1995238    50.054452    50.054452     100.1089 
  188700    26845    301.29014    -1158.102   -2950824.4    24108.293   -2926716.1    250839.83    1.1994178    50.055926    50.055926    100.11185 
  188800    26845     299.6749    1295.9564   -2950724.6    23979.046   -2926745.6    250906.48    1.1990992    50.060359    50.060359    100.12072 
  188900    26845    296.74781   -516.50732   -2950767.4    23744.829   -2927022.5    250886.51    1.1991947    50.059031    50.059031    100.11806 
  189000    26845    298.21442    435.24923   -2950985.2    23862.183   -2927123.1    250946.14    1.1989097    50.062996    50.062996    100.12599 
  189100    26845    299.54416     2968.672   -2950929.1    23968.584   -2926960.5    251023.89    1.1985384    50.068166    50.068166    100.13633 
  189200    26845    301.46759    943.40292   -2950849.6    24122.491   -2926727.1    250904.11    1.1991106    50.060202    50.060202     100.1204 
  189300    26845    300.95859    630.07508   -2950792.3    24081.763   -2926710.6    250708.98    1.2000439    50.047221    50.047221    100.09444 
  189400    26845    300.18112     96.23186   -2950831.5    24019.552     -2926812    250591.98    1.2006041    50.039434    50.039434    100.07887 
  189500    26845    300.34692   -86.310686   -2951007.9    24032.819   -2926975.1    250616.84     1.200485    50.041089    50.041089    100.08218 
  189600    26845    300.49837    1397.1203   -2951150.6    24044.938   -2927105.7    250592.22     1.200603     50.03945     50.03945     100.0789 
  189700    26845    296.39293   -582.35534   -2950983.6    23716.433   -2927267.2    250588.23    1.2006221    50.039185    50.039185    100.07837 
  189800    26845    298.08796    19.130407   -2951013.4    23852.064   -2927161.3    250593.26     1.200598     50.03952     50.03952    100.07904 
  189900    26845    301.87615    1567.1235   -2951022.2    24155.183     -2926867    250615.87    1.2004897    50.041024    50.041024    100.08205 
  190000    26845     300.4977    -1383.669   -2950839.3    24044.884   -2926794.5    250655.28     1.200301    50.043647    50.043647    100.08729 
  190100    26845    300.23423   -1395.8655   -2950888.4    24023.802   -2926864.6    250682.17    1.2001722    50.045436    50.045436    100.09087 
  190200    26845    297.40548    791.00447   -2950933.1    23797.454   -2927135.7    250596.58    1.2005821     50.03974     50.03974    100.07948 
  190300    26845    299.82179   -315.85949   -2951190.5      23990.8   -2927199.7    250519.15    1.2009532    50.034586    50.034586    100.06917 
  190400    26845    296.73084    1400.9873   -2950800.7    23743.471   -2927057.3    250625.78    1.2004422    50.041684    50.041684    100.08337 
  190500    26845    300.87062    2561.9364   -2950931.1    24074.724   -2926856.4    250786.21    1.1996743    50.052359    50.052359    100.10472 
  190600    26845    300.18061    468.45412   -2950807.7    24019.511   -2926788.2    250958.28    1.1988518    50.063804    50.063804    100.12761 
  190700    26845    299.56533    3516.6229   -2950850.7    23970.279   -2926880.4    250820.45    1.1995106    50.054637    50.054637    100.10927 
  190800    26845    298.03362   -2043.2373   -2950907.4    23847.716   -2927059.6    250640.46    1.2003719    50.042661    50.042661    100.08532 
  190900    26845    297.24067   -1409.0674   -2951037.8    23784.267   -2927253.5    250572.79    1.2006961    50.038157    50.038157    100.07631 
  191000    26845    298.68543   -604.12783   -2951041.2    23899.872   -2927141.3    250538.39    1.2008609    50.035867    50.035867    100.07173 
  191100    26845    302.20789    1776.4282   -2950992.9    24181.728   -2926811.2     250361.9    1.2017075    50.024115    50.024115    100.04823 
  191200    26845    302.29689   -257.18206   -2950990.4    24188.849   -2926801.5    250391.54    1.2015653    50.026089    50.026089    100.05218 
  191300    26845    299.94427   -668.07924   -2950905.3      24000.6   -2926904.7    250537.51    1.2008652    50.035809    50.035809    100.07162 
  191400    26845    298.93136    980.08615   -2951068.1     23919.55   -2927148.6    250548.03    1.2008147    50.036509    50.036509    100.07302 
  191500    26845    298.50006   -2038.9159   -2951036.3    23885.039   -2927151.3    250490.35    1.2010913    50.032669    50.032669    100.06534 
  191600    26845    301.50061   -456.09459   -2951115.7    24125.134   -2926990.5    250401.74    1.2015163    50.026769    50.026769    100.05354 
  191700    26845    298.56973    243.68487     -2950830    23890.614   -2926939.4    250239.22    1.2022966    50.015943    50.015943    100.03189 
  191800    26845    301.15544    1881.8499   -2950918.4    24097.514   -2926820.9    250296.72    1.2020204    50.019774    50.019774    100.03955 
  191900    26845    301.75264    2492.4493   -2950922.4      24145.3   -2926777.1     250339.2    1.2018164    50.022603    50.022603    100.04521 
  192000    26845    299.54779   -2392.5217   -2951065.6    23968.875   -2927096.8    250422.99    1.2014144    50.028183    50.028183    100.05637 
  192100    26845    298.80528     251.6253   -2951084.7    23909.462   -2927175.2    250333.25     1.201845    50.022206    50.022206    100.04441 
  192200    26845    301.93054     2012.646     -2951222    24159.535   -2927062.5    250382.74    1.2016075    50.025503    50.025503    100.05101 
  192300    26845    301.01298    1420.5334   -2951038.9    24086.115   -2926952.8    250256.11    1.2022155    50.017068    50.017068    100.03414 
  192400    26845    301.92116    -362.1747   -2950840.2    24158.784   -2926681.4     250149.1    1.2027298    50.009938    50.009938    100.01988 
  192500    26845     302.6372   -743.01196   -2950772.7     24216.08   -2926556.6    250151.39    1.2027187    50.010091    50.010091    100.02018 
  192600    26845    301.29338   -1000.2561   -2950851.2    24108.552   -2926742.6    250117.97    1.2028795    50.007863    50.007863    100.01573 
  192700    26845    301.44003   -696.57265   -2950991.5    24120.286   -2926871.2    250076.43    1.2030793    50.005095    50.005095    100.01019 
  192800    26845    299.13656    1075.9974   -2950882.1     23935.97   -2926946.1    250137.59    1.2027851    50.009171    50.009171    100.01834 
  192900    26845    297.77106    180.11991   -2950883.6    23826.706   -2927056.9    250439.39    1.2013356    50.029276    50.029276    100.05855 
  193000    26845    299.05413   -3810.9923   -2950945.2    23929.374   -2927015.9    250509.52    1.2009993    50.033945    50.033945    100.06789 
  193100    26845    301.86221    711.13841   -2950856.7    24154.067   -2926702.6    250422.04    1.2014189     50.02812     50.02812    100.05624 
  193200    26845    301.02953   -1153.9043   -2950794.2     24087.44   -2926706.7    250380.65    1.2016175    50.025364    50.025364    100.05073 
  193300    26845    299.73722    2439.2643   -2950879.7    23984.033   -2926895.7    250508.68    1.2010034    50.033889    50.033889    100.06778 
  193400    26845     298.6069   -1754.2259   -2950898.6    23893.588     -2927005    250775.48    1.1997256    50.051646    50.051646    100.10329 
  193500    26845    299.59571   -2921.5766   -2950924.8    23972.709   -2926952.1    251016.43     1.198574     50.06767     50.06767    100.13534 
  193600    26845     299.3142   -480.92727   -2950815.3    23950.184   -2926865.2    250870.45    1.1992715    50.057963    50.057963    100.11593 
  193700    26845    298.76205   -2266.3478   -2950744.6    23906.003   -2926838.6    250681.92    1.2001734     50.04542     50.04542    100.09084 
  193800    26845    301.36669   -1406.0346   -2950903.1    24114.417   -2926788.7     250844.4     1.199396     50.05623     50.05623    100.11246 
  193900    26845    303.40612   -577.04661   -2950851.3    24277.607   -2926573.7    251130.27    1.1980307    50.075238    50.075238    100.15048 
  194000    26845    302.14043    9.9658562   -2950626.9     24176.33   -2926450.6    251173.25    1.1978257    50.078095    50.078095    100.15619 
  194100    26845    301.27759   -1351.5167   -2950819.4    24107.288   -2926712.1    251150.77    1.1979329    50.076601    50.076601     100.1532 
  194200    26845    299.12642   -295.88401   -2950833.9    23935.159   -2926898.7    251014.58    1.1985828    50.067548    50.067548     100.1351 
  194300    26845    299.90072    1236.5703   -2950934.1    23997.116     -2926937     251119.1     1.198084    50.074496    50.074496    100.14899 
  194400    26845    301.39884    379.82685   -2950947.8     24116.99   -2926830.8    250942.05    1.1989293    50.062725    50.062725    100.12545 
  194500    26845    301.78948    356.34669   -2950866.9    24148.248   -2926718.7    250777.62    1.1997154    50.051788    50.051788    100.10358 
  194600    26845    302.63824    985.22102   -2950829.5    24216.163   -2926613.3     250733.4     1.199927    50.048846    50.048846    100.09769 
  194700    26845    299.42509    2171.8277   -2950734.8    23959.057   -2926775.8    250633.65    1.2004045    50.042208    50.042208    100.08442 
  194800    26845    297.84678    -427.7393   -2950854.6    23832.766   -2927021.9    250544.63    1.2008311    50.036282    50.036282    100.07256 
  194900    26845    298.29741   -781.89761   -2950926.5    23868.824   -2927057.7    250656.75    1.2002939    50.043745    50.043745    100.08749 
  195000    26845    300.20682    855.65613   -2951024.8    24021.609   -2927003.2    250618.93    1.2004751    50.041228    50.041228    100.08246 
  195100    26845    298.14838   -1568.7704   -2950892.3    23856.899   -2927035.4    250709.04    1.2000436    50.047225    50.047225    100.09445 
  195200    26845    297.39948    3356.1115   -2950880.1    23796.974   -2927083.1    251028.52    1.1985163    50.068474    50.068474    100.13695 
  195300    26845    301.64019    1216.1379   -2951038.5    24136.303   -2926902.2    251341.51    1.1970238    50.089275    50.089275    100.17855 
  195400    26845    302.37253   -1689.7101   -2950956.1    24194.902   -2926761.2    251544.58    1.1960575    50.102761    50.102761    100.20552 
  195500    26845    300.16119   -2765.8488   -2950924.8    24017.957   -2926906.9    251469.44    1.1964148    50.097771    50.097771    100.19554 
  195600    26845    299.44391   -681.69495   -2951078.7    23960.563   -2927118.1    251427.67    1.1966136    50.094997    50.094997    100.18999 
  195700    26845    298.56351    1634.7326   -2950996.7    23890.116   -2927106.6    251250.28    1.1974584    50.083213    50.083213    100.16643 
  195800    26845    301.05707   -2146.4077   -2950843.2    24089.643   -2926753.6    251233.87    1.1975367    50.082123    50.082123    100.16425 
  195900    26845    301.55009    1351.3494   -2950835.2    24129.093   -2926706.1    251325.01    1.1971024    50.088179    50.088179    100.17636 
  196000    26845    299.73225    -277.2802     -2950873    23983.635   -2926889.4    251188.55    1.1977527    50.079111    50.079111    100.15822 
  196100    26845    298.68009   -1095.6429   -2950916.8    23899.444   -2927017.4    251032.89    1.1984954    50.068765    50.068765    100.13753 
  196200    26845    298.44144   -751.32589   -2950905.9    23880.349   -2927025.5    250832.04    1.1994551    50.055408    50.055408    100.11082 
  196300    26845    298.31392     891.2922   -2950852.7    23870.145   -2926982.6    250682.72    1.2001696    50.045473    50.045473    100.09095 
  196400    26845    300.76714    -101.8136   -2950867.1    24066.443   -2926800.7    250391.09    1.2015674    50.026059    50.026059    100.05212 
  196500    26845    300.32969   -862.08739   -2950852.2    24031.441   -2926820.8    250327.54    1.2018725    50.021826    50.021826    100.04365 
  196600    26845    299.71824    1496.1936   -2951027.8    23982.514   -2927045.3    250264.41    1.2021756    50.017621    50.017621    100.03524 
  196700    26845    297.38454   -2861.3394   -2950931.8    23795.779     -2927136    250460.73    1.2012333    50.030696    50.030696    100.06139 
  196800    26845    298.45457    230.44689   -2950907.3    23881.399   -2927025.9    250427.18    1.2013942    50.028462    50.028462    100.05692 
  196900    26845    300.79806   -1304.3235   -2950745.9    24068.918     -2926677    250250.18     1.202244    50.016673    50.016673    100.03335 
  197000    26845    301.37064    2109.4497   -2950783.9    24114.734   -2926669.1    250166.49    1.2026461    50.011097    50.011097    100.02219 
  197100    26845    301.49177   -2062.0733   -2950986.3    24124.426   -2926861.9    250715.92    1.2000106    50.047682    50.047682    100.09536 
  197200    26845    297.33535   -1945.2092     -2950850    23791.842   -2927058.1    251007.73    1.1986156    50.067092    50.067092    100.13418 
  197300    26845    298.97315    -221.0987   -2950974.5    23922.894   -2927051.6    251182.74    1.1977804    50.078726    50.078726    100.15745 
  197400    26845    301.30269      1252.27   -2950943.5    24109.296   -2926834.2    251122.16    1.1980694    50.074699    50.074699     100.1494 
  197500    26845    301.45852    398.26448   -2950837.8    24121.766     -2926716    251095.83     1.198195    50.072949    50.072949     100.1459 
  197600    26845    298.97324    1030.0508   -2950724.7    23922.901   -2926801.8    251020.01    1.1985569    50.067908    50.067908    100.13582 
  197700    26845     299.4692   -1229.7657   -2950811.3    23962.587   -2926848.7    251079.76    1.1982717    50.071881    50.071881    100.14376 
  197800    26845    299.50105   -2811.2537   -2950881.8    23965.135   -2926916.7    251014.02    1.1985855     50.06751     50.06751    100.13502 
  197900    26845     299.4694    1996.2986   -2951017.3    23962.603   -2927054.7    250570.13    1.2007088     50.03798     50.03798    100.07596 
  198000    26845    296.98921    1139.7631   -2951063.8    23764.145   -2927299.7     250379.3     1.201624    50.025274    50.025274    100.05055 
  198100    26845    298.45329    1225.7188   -2951221.9    23881.297   -2927340.6    250400.82    1.2015207    50.026707    50.026707    100.05341 
  198200    26845    299.04246   -878.20627   -2950930.9     23928.44   -2927002.5    250412.34    1.2014655    50.027474    50.027474    100.05495 
  198300    26845    301.77612   -735.82224   -2951027.5    24147.179   -2926880.4    250712.74    1.2000259    50.047471    50.047471    100.09494 
  198400    26845    300.57666    2555.1806   -2950973.8    24051.202   -2926922.5    250975.63    1.1987689    50.064957    50.064957    100.12991 
  198500    26845    297.79892    123.29761   -2950925.4    23828.936   -2927096.5    251189.59    1.1977478     50.07918     50.07918    100.15836 
  198600    26845    297.43711   -1300.6968   -2951043.1    23799.985   -2927243.1    251138.63    1.1979908    50.075794    50.075794    100.15159 
  198700    26845     300.0293   -164.58077   -2951041.6    24007.404   -2927034.2    251329.37    1.1970816    50.088468    50.088468    100.17694 
  198800    26845    300.80672    2657.4598   -2950858.6    24069.611   -2926788.9    251252.85    1.1974462    50.083384    50.083384    100.16677 
  198900    26845    301.71751   -535.64159   -2950957.2    24142.489   -2926814.7    251216.42    1.1976198    50.080964    50.080964    100.16193 
  199000    26845     299.9524    214.33028     -2951006    24001.251   -2927004.7    251074.93    1.1982947     50.07156     50.07156    100.14312 
  199100    26845    299.05853    3112.7689   -2951028.2    23929.726   -2927098.4    251068.48    1.1983256    50.071131    50.071131    100.14226 
  199200    26845    300.01863    1558.1614   -2951080.7     24006.55   -2927074.1    251132.23    1.1980213    50.075369    50.075369    100.15074 
  199300    26845    300.75939   -7.3628609   -2951066.8    24065.823   -2927000.9    251141.59    1.1979767     50.07599     50.07599    100.15198 
  199400    26845    301.47359   -765.52751   -2951110.9    24122.972   -2926987.9    251247.83    1.1974701    50.083051    50.083051     100.1661 
  199500    26845     299.6451    767.02229   -2950991.1    23976.662   -2927014.4    251335.84    1.1970508    50.088898    50.088898     100.1778 
  199600    26845    299.88294    1405.1445   -2950945.6    23995.693   -2926949.9    251324.77    1.1971035    50.088162    50.088162    100.17632 
  199700    26845    299.36704    239.82543   -2950802.8    23954.412   -2926848.4     250956.6    1.1988598    50.063692    50.063692    100.12738 
  199800    26845    301.34526    580.63388   -2950922.1    24112.703   -2926809.4    250763.72    1.1997819    50.050863    50.050863    100.10173 
  199900    26845    300.16491    550.64095   -2951048.3    24018.255   -2927030.1    250791.42    1.1996494    50.052706    50.052706    100.10541 
  200000    26845     299.1164     803.5251   -2951099.8    23934.357   -2927165.4    251023.05    1.1985424    50.068111    50.068111    100.13622 
Loop time of 57514.9 on 28 procs for 200000 steps with 26845 atoms

Performance: 0.075 ns/day, 319.527 hours/ns, 3.477 timesteps/s
99.8% CPU use with 28 MPI tasks x no OpenMP threads

MPI task timing breakdown:
Section |  min time  |  avg time  |  max time  |%varavg| %total
---------------------------------------------------------------
Pair    | 37589      | 41520      | 43120      | 657.7 | 72.19
Neigh   | 2794.4     | 2989.3     | 3134.6     | 207.6 |  5.20
Comm    | 180.19     | 1765.2     | 5713.4     |3172.9 |  3.07
Output  | 1.268      | 12.143     | 23.091     | 187.0 |  0.02
Modify  | 11062      | 11223      | 11472      | 119.7 | 19.51
Other   |            | 5.465      |            |       |  0.01

Nlocal:    958.75 ave 1035 max 865 min
Histogram: 1 0 2 3 4 7 4 4 2 1
Nghost:    11767.5 ave 12085 max 11451 min
Histogram: 5 3 0 2 4 2 2 3 4 3
Neighs:    955329 ave 1.05786e+06 max 818701 min
Histogram: 1 0 3 2 3 5 6 3 3 2

Total # of neighbors = 26749218
Ave neighs/atom = 996.432
Neighbor list builds = 20000
Dangerous builds not checked
write_restart	restart.npt_equi
unfix npt_equi
unfix bd
undump npt_dump


Please see the log.cite file for references relevant to this simulation

Total wall time: 15:59:01
