LAMMPS (2 Aug 2019)
# lammps code to equilibrate pmma system
# method adopted from the paper "Toughening of graphene based polymer nanocomposite via tuning chemical functionalization"
# after equilibration create crack and perform tension test
# pmma pnc system has been functionalized - 40 % of -OH functionalization
# cnt is functionalized with -OH group (hydrogen bonding)

units		real
atom_style 	charge
boundary 	p p p
read_data       pmma_pnc_funct.data
  orthogonal box = (0.380437 1.69751 1.37789) to (50.3804 51.6975 101.378)
  2 by 2 by 7 MPI processor grid
  reading atoms ...
  26978 atoms
  read_data CPU = 0.102203 secs

pair_style	reax/c control_file lgvdw yes
pair_coeff	* * ffield.reax.lg C C H O H C C C O O C C
Reading potential file ffield.reax.lg with DATE: 2012-01-06

neighbor	4 bin
neigh_modify	every 10 delay 0 check no

thermo 100
thermo_style custom step atoms temp press pe ke etotal vol density lx ly lz      #output variables

fix std all qeq/reax 1 0.0 10.0 1e-6 reax/c
min_style	 cg							#conjugate gradient minimization
minimize	 1.0e-6 1.0e-8 10000 100000
WARNING: Using 'neigh_modify every 1 delay 0 check yes' setting during minimization (../min.cpp:168)
Neighbor list info ...
  update every 1 steps, delay 0 steps, check yes
  max neighbors/atom: 2000, page size: 100000
  master list distance cutoff = 14
  ghost atom cutoff = 14
  binsize = 7, bins = 8 8 15
  2 neighbor lists, perpetual/occasional/extra = 2 0 0
  (1) pair reax/c, perpetual
      attributes: half, newton off, ghost
      pair build: half/bin/newtoff/ghost
      stencil: half/ghost/bin/3d/newtoff
      bin: standard
  (2) fix qeq/reax, perpetual, copy from (1)
      attributes: half, newton off, ghost
      pair build: copy
      stencil: none
      bin: none
Per MPI rank memory allocation (min/avg/max) = 278.5 | 286 | 291.7 Mbytes
Step Atoms Temp Press PotEng KinEng TotEng Volume Density Lx Ly Lz 
       0    26978            0    295126.56   -2815995.7            0   -2815995.7       250000    1.2137925           50           50          100 
      50    26978            0    8184.2899     -2959722            0     -2959722       250000    1.2137925           50           50          100 
Loop time of 42.6341 on 28 procs for 50 steps with 26978 atoms

99.7% CPU use with 28 MPI tasks x no OpenMP threads

Minimization stats:
  Stopping criterion = energy tolerance
  Energy initial, next-to-last, final = 
        -2815995.69797     -2959719.81976     -2959722.03939
  Force two-norm initial, final = 40312.8 3256.5
  Force max component initial, final = 1056.28 582.378
  Final line search alpha, max atom move = 4.29018e-05 0.0249851
  Iterations, force evaluations = 50 130

MPI task timing breakdown:
Section |  min time  |  avg time  |  max time  |%varavg| %total
---------------------------------------------------------------
Pair    | 26.506     | 28.479     | 29.079     |  11.9 | 66.80
Neigh   | 0          | 0          | 0          |   0.0 |  0.00
Comm    | 0.074711   | 0.67112    | 2.6477     |  77.3 |  1.57
Output  | 0          | 0          | 0          |   0.0 |  0.00
Modify  | 13.459     | 13.463     | 13.469     |   0.1 | 31.58
Other   |            | 0.02066    |            |       |  0.05

Nlocal:    963.5 ave 1017 max 894 min
Histogram: 2 0 1 3 4 5 5 3 4 1
Nghost:    11857.5 ave 12077 max 11630 min
Histogram: 5 4 0 3 2 0 2 4 4 4
Neighs:    967773 ave 1.02454e+06 max 868016 min
Histogram: 1 1 1 1 4 4 4 3 3 6

Total # of neighbors = 27097634
Ave neighs/atom = 1004.43
Neighbor list builds = 0
Dangerous builds not checked


#set of equilibrations to reduce the energy of the system

reset_timestep 0
timestep 0.25
fix npt_equi all npt temp 300.0 300.0 25.0 iso 1.0 1.0 250.0
#fix bd all reax/c/bonds 500 bonds.reaxc_eqbn
dump npt_dump all custom 500 dump.npt id type x y z
run 200000
Per MPI rank memory allocation (min/avg/max) = 278.2 | 285.7 | 291.4 Mbytes
Step Atoms Temp Press PotEng KinEng TotEng Volume Density Lx Ly Lz 
       0    26978            0    8184.2832     -2959722            0     -2959722       250000    1.2137925           50           50          100 
     100    26978    71.194384   -2092.5942   -2964968.8    5724.9762   -2959243.8    250068.89    1.2134581    50.004592    50.004592    100.00918 
     200    26978    96.797483   -425.64395     -2965669    7783.8063   -2957885.2    247192.71    1.2275771    49.812143    49.812143    99.624285 
     300    26978    111.07821   -1219.3601   -2964927.6    8932.1671   -2955995.4    245809.29     1.234486    49.719043    49.719043    99.438087 
     400    26978    126.59938   -1911.5367   -2964035.7    10180.275   -2953855.4    246121.42    1.2329204    49.740079    49.740079    99.480159 
     500    26978    152.88614   -440.13244   -2963584.9    12294.081   -2951290.8     246553.4    1.2307602    49.769163    49.769163    99.538325 
     600    26978    172.90971    748.39619     -2962301    13904.243   -2948396.7    246360.45    1.2317242    49.756176    49.756176    99.512352 
     700    26978    191.14604    3328.1265   -2960622.3    15370.687   -2945251.6    247017.74    1.2284467    49.800387    49.800387    99.600773 
     800    26978    213.43802    4548.7925   -2959121.5    17163.258   -2941958.3    249126.27    1.2180494    49.941684    49.941684    99.883367 
     900    26978    233.04177    1001.9652   -2957265.5    18739.661   -2938525.8    251576.91    1.2061843    50.104907    50.104907    100.20981 
    1000    26978    257.65999    2161.7872   -2955823.5    20719.294   -2935104.2    253598.16    1.1965707    50.238736    50.238736    100.47747 
    1100    26978    276.52902    1095.6743   -2954123.3    22236.615   -2931886.7    255396.49    1.1881452    50.357208    50.357208    100.71442 
    1200    26978    296.51096    745.18706   -2953007.7    23843.428   -2929164.3    257366.53    1.1790505    50.486356    50.486356    100.97271 
    1300    26978    303.71786    1358.1444   -2951713.9    24422.959     -2927291    258955.17    1.1718172    50.590022    50.590022    101.18004 
    1400    26978    304.19613    295.58878   -2950783.1    24461.419   -2926321.7    260912.43    1.1630267     50.71716     50.71716    101.43432 
    1500    26978    304.60077    3059.2645   -2950598.1    24493.957   -2926104.2    263107.73    1.1533227    50.859007    50.859007    101.71801 
    1600    26978    298.36622   -1412.0698   -2950424.1    23992.616   -2926431.4    265427.08    1.1432448    51.008013    51.008013    102.01603 
    1700    26978    300.14507    1771.0017   -2950685.7    24135.659     -2926550    267024.87    1.1364039     51.11016     51.11016    102.22032 
    1800    26978     297.3405    890.93879   -2950423.7    23910.135   -2926513.5    268700.61    1.1293168    51.216853    51.216853    102.43371 
    1900    26978    296.92268    -1160.352   -2950105.4    23876.537   -2926228.9    270157.56    1.1232265    51.309255    51.309255    102.61851 
    2000    26978    300.58173    63.979576   -2949846.5    24170.773   -2925675.8    271393.06     1.118113    51.387353    51.387353    102.77471 
    2100    26978    303.28518     1049.709   -2949617.9    24388.166   -2925229.8    272306.45    1.1143626    51.444938    51.444938    102.88988 
    2200    26978    302.49748    90.324016   -2949572.4    24324.825   -2925247.6    273418.31     1.109831    51.514861    51.514861    103.02972 
    2300    26978    297.29335    1647.8631   -2949661.9    23906.344   -2925755.6    274813.01    1.1041985    51.602305    51.602305    103.20461 
    2400    26978    294.54452   -1010.8101   -2949626.9    23685.301   -2925941.6    276127.92    1.0989404    51.684475    51.684475    103.36895 
    2500    26978    301.41007   -15.121693   -2949746.3    24237.383   -2925508.9    277241.07     1.094528    51.753833    51.753833    103.50767 
    2600    26978    303.44089    356.76419   -2949566.7    24400.687     -2925166    278379.03    1.0900538    51.824546    51.824546    103.64909 
    2700    26978     300.9369   -1087.1912   -2949571.9    24199.333   -2925372.6     279776.9    1.0846075    51.911146    51.911146    103.82229 
    2800    26978    297.65751    1251.8262   -2949687.6    23935.627   -2925751.9    280985.06     1.079944    51.985762    51.985762    103.97152 
    2900    26978    296.11664    83.012214   -2949663.6     23811.72   -2925851.9    282203.33    1.0752819    52.060785    52.060785    104.12157 
    3000    26978    299.28986    1051.4231   -2949385.3    24066.889   -2925318.4    283104.63    1.0718586     52.11615     52.11615     104.2323 
    3100    26978    305.09723    982.19649   -2949191.2    24533.879   -2924657.3    284117.66    1.0680368    52.178238    52.178238    104.35648 
    3200    26978    301.44798    1678.7729   -2948781.7    24240.431   -2924541.2    285530.54    1.0627519    52.264587    52.264587    104.52917 
    3300    26978    302.36815   -659.23751   -2949089.9    24314.425   -2924775.5    286968.41    1.0574269    52.352171    52.352171    104.70434 
    3400    26978    301.10478    799.96587   -2949366.7    24212.833   -2925153.9    288136.25    1.0531411    52.423092    52.423092    104.84618 
    3500    26978    296.33577    1714.7204   -2949278.9    23829.341   -2925449.5    289110.03    1.0495939    52.482082    52.482082    104.96416 
    3600    26978    300.01998   -1295.0344   -2949484.9    24125.601   -2925359.3    289688.44    1.0474982    52.517058    52.517058    105.03412 
    3700    26978     299.7963    760.28126   -2949286.8    24107.614   -2925179.2    289740.74    1.0473091    52.520219    52.520219    105.04044 
    3800    26978    297.90854   -1133.9096   -2948878.7    23955.813   -2924922.9    289795.07    1.0471128    52.523501    52.523501      105.047 
    3900    26978    302.73497    1174.9277   -2948902.7    24343.922   -2924558.8    289976.05    1.0464592    52.534433    52.534433    105.06887 
    4000    26978    302.41728   -271.09212   -2948843.2    24318.375   -2924524.8    290143.19    1.0458564    52.544524    52.544524    105.08905 
    4100    26978     300.7067   -672.85129   -2949103.1    24180.822   -2924922.3    290224.04    1.0455651    52.549404    52.549404    105.09881 
    4200    26978    296.49998    493.12028   -2949111.8    23842.545   -2925269.3    290490.63    1.0446055    52.565489    52.565489    105.13098 
    4300    26978    296.63517    823.70043   -2949040.4    23853.417     -2925187    290625.21    1.0441218    52.573606    52.573606    105.14721 
    4400    26978    302.73662   -764.81333   -2949152.8    24344.054   -2924808.7     290987.6    1.0428215    52.595448    52.595448     105.1909 
    4500    26978      299.512   -867.70241   -2948770.4    24084.752   -2924685.7    291600.09    1.0406311    52.632324    52.632324    105.26465 
    4600    26978    300.32126   -1529.1584   -2948849.4    24149.828   -2924699.6    291934.75    1.0394382    52.652452    52.652452     105.3049 
    4700    26978    299.63297    254.79572   -2949008.1     24094.48   -2924913.6    292200.79    1.0384918    52.668441    52.668441    105.33688 
    4800    26978    297.51563   -446.72127   -2949126.3    23924.217   -2925202.1    292752.61    1.0365343    52.701575    52.701575    105.40315 
    4900    26978    299.86227   -919.13216   -2949335.1    24112.918   -2925222.2    292832.76    1.0362506    52.706384    52.706384    105.41277 
    5000    26978    298.58225    129.03215   -2949098.9    24009.988   -2925088.9    292821.81    1.0362893    52.705727    52.705727    105.41145 
    5100    26978     301.4052    11.377891   -2949084.4    24236.991   -2924847.5     292868.9    1.0361227    52.708552    52.708552     105.4171 
    5200    26978    302.21219    1471.9706     -2949069    24301.884   -2924767.2    292680.64    1.0367892    52.697256    52.697256    105.39451 
    5300    26978    299.92171    115.59736     -2948964    24117.698   -2924846.3    292542.58    1.0372785    52.688969    52.688969    105.37794 
    5400    26978    298.16081    808.94161   -2948904.2    23976.099   -2924928.1    292319.53    1.0380699    52.675574    52.675574    105.35115 
    5500    26978    301.78711    1240.3952   -2949094.5    24267.701   -2924826.8    291991.87    1.0392348    52.655886    52.655886    105.31177 
    5600    26978    300.61158   -1666.1007   -2948930.8    24173.173   -2924757.6    291869.28    1.0396713    52.648516    52.648516    105.29703 
    5700    26978    302.02649    1495.2343   -2948967.7    24286.951   -2924680.8    291532.01    1.0408741    52.628228    52.628228    105.25646 
    5800    26978    301.49144   -657.76651   -2949111.3    24243.926   -2924867.3    291063.33    1.0425501    52.600011    52.600011    105.20002 
    5900    26978    299.37803    1612.6414     -2949109    24073.979   -2925035.1    290454.28    1.0447363    52.563297    52.563297    105.12659 
    6000    26978    299.61483   -1656.7123   -2949191.4    24093.021   -2925098.4    290015.86    1.0463156    52.536837    52.536837    105.07367 
    6100    26978    299.95039    2140.5801   -2949261.4    24120.005   -2925141.4    289685.97    1.0475071    52.516909    52.516909    105.03382 
    6200    26978     299.5521   -1306.1923   -2949237.3    24087.976   -2925149.4    289576.29    1.0479039     52.51028     52.51028    105.02056 
    6300    26978    301.13613    692.20539   -2949252.2    24215.354   -2925036.8    289547.18    1.0480092     52.50852     52.50852    105.01704 
    6400    26978    302.62185   -314.64302   -2949386.2    24334.825   -2925051.4    289473.54    1.0482759    52.504068    52.504068    105.00814 
    6500    26978    301.22719    269.25012   -2949580.3    24222.676   -2925357.6    289661.27    1.0475964    52.515416    52.515416    105.03083 
    6600    26978    299.43744    275.19397   -2949750.6    24078.757   -2925671.9    290049.27    1.0461951    52.538854    52.538854    105.07771 
    6700    26978    297.22102   -602.75086   -2949635.6    23900.527   -2925735.1    290469.85    1.0446803    52.564236    52.564236    105.12847 
    6800    26978    298.01495   -809.12687   -2949315.5     23964.37   -2925351.1    290498.41    1.0445775    52.565959    52.565959    105.13192 
    6900    26978    303.86922   -58.601549   -2949310.3     24435.13   -2924875.1    290471.73    1.0446735    52.564349    52.564349     105.1287 
    7000    26978    301.89972    760.33896   -2949067.1    24276.757   -2924790.3    290440.37    1.0447863    52.562457    52.562457    105.12491 
    7100    26978     303.1798    715.89615     -2949464    24379.692   -2925084.3    290971.77    1.0428782    52.594495    52.594495    105.18899 
    7200    26978    299.45299     -316.687   -2949661.5    24080.007   -2925581.5    291228.47     1.041959    52.609957    52.609957    105.21991 
    7300    26978    296.53818   -2190.2697   -2949687.1    23845.617   -2925841.5    291781.59    1.0399838    52.643243    52.643243    105.28649 
    7400    26978    298.23675    300.33708   -2949578.6    23982.205   -2925596.4     292287.2    1.0381848    52.673632    52.673632    105.34726 
    7500    26978    299.11669   -1255.7642     -2949126    24052.964   -2925073.1       292020    1.0391347    52.657576    52.657576    105.31515 
    7600    26978    304.44466    1689.7548   -2949073.4    24481.404     -2924592     291564.9    1.0407567    52.630208    52.630208    105.26042 
    7700    26978    303.03215   -86.928586   -2949077.2    24367.819   -2924709.3    291761.79    1.0400543    52.642052    52.642052     105.2841 
    7800    26978    300.63859   -1915.8003     -2949234    24175.345   -2925058.6    292180.17    1.0385651    52.667202    52.667202     105.3344 
    7900    26978     297.7843    1724.9682   -2949433.5    23945.822   -2925487.7    292058.17    1.0389989    52.659871    52.659871    105.31974 
    8000    26978    298.06749    1049.6182   -2949544.9    23968.594   -2925576.4    292029.03    1.0391026    52.658119    52.658119    105.31624 
    8100    26978    299.88414    10.374039   -2949462.5    24114.677   -2925347.8    292283.38    1.0381983    52.673403    52.673403    105.34681 
    8200    26978    303.33918    61.464209   -2949433.2    24392.508   -2925040.7    292450.92    1.0376036    52.683465    52.683465    105.36693 
    8300    26978    300.46474   -1172.6996   -2949243.8    24161.365   -2925082.4    292339.14    1.0380003    52.676752    52.676752     105.3535 
    8400    26978    298.53604   -548.41887   -2949344.9    24006.272   -2925338.6    292772.66    1.0364633    52.702778    52.702778    105.40556 
    8500    26978     297.4054   -1028.5637   -2949441.7    23915.354   -2925526.4    292700.65    1.0367183    52.698457    52.698457    105.39691 
    8600    26978    301.10015    1061.3659   -2949481.7     24212.46   -2925269.3    292370.01    1.0378907    52.678606    52.678606    105.35721 
    8700    26978    303.03472   -202.91494     -2949382    24368.026   -2925013.9    292246.31      1.03833    52.671176    52.671176    105.34235 
    8800    26978    302.13843    737.99673   -2949337.6    24295.952   -2925041.7    292130.42    1.0387419    52.664213    52.664213    105.32843 
    8900    26978    300.83171   -22.014431   -2949565.4    24190.874   -2925374.5    291908.85    1.0395304    52.650895    52.650895    105.30179 
    9000    26978    297.98023   -1835.2837     -2949620    23961.577   -2925658.4       291986    1.0392557    52.655533    52.655533    105.31107 
    9100    26978    299.10659    1187.2317   -2949619.8    24052.152   -2925567.6    292030.69    1.0390967    52.658219    52.658219    105.31644 
    9200    26978    301.57291    393.13507   -2949535.1    24250.477   -2925284.7    292250.33    1.0383158    52.671417    52.671417    105.34283 
    9300    26978    300.57683    1590.2277   -2949368.5    24170.379   -2925198.1    291957.93    1.0393556    52.653845    52.653845    105.30769 
    9400    26978    301.55091   -1327.4225   -2949491.9    24248.708   -2925243.2    291516.56    1.0409293    52.627298    52.627298     105.2546 
    9500    26978    300.17228    794.30037   -2949648.9    24137.848   -2925511.1    291210.74    1.0420224    52.608889    52.608889    105.21778 
    9600    26978    299.74852    3692.6865   -2949875.6    24103.772   -2925771.8    291051.77    1.0425916    52.599315    52.599315    105.19863 
    9700    26978    299.79773   -105.17587   -2949894.2    24107.729   -2925786.5    290895.65    1.0431511    52.589908    52.589908    105.17982 
    9800    26978    299.73755   -638.37204   -2949727.3    24102.889   -2925624.4    290631.98    1.0440975    52.574014    52.574014    105.14803 
    9900    26978    303.33715     -381.491   -2949815.8    24392.345   -2925423.5    290390.94    1.0449642    52.559475    52.559475    105.11895 
   10000    26978    298.72809   -69.339273   -2949551.3    24021.715   -2925529.6    290270.95    1.0453961    52.552235    52.552235    105.10447 
   10100    26978    300.01429   -108.37681   -2949731.5    24125.143   -2925606.4    290245.85    1.0454865     52.55072     52.55072    105.10144 
   10200    26978     297.0641    -868.9412   -2949543.2    23887.908   -2925655.3    290040.98     1.046225    52.538354    52.538354    105.07671 
   10300    26978    300.49219    261.36963   -2949699.8    24163.572   -2925536.2    289384.72    1.0485976    52.498698    52.498698     104.9974 
   10400    26978    300.68374    1506.3495   -2949642.7    24178.976   -2925463.7    288868.02    1.0504732    52.467434    52.467434    104.93487 
   10500    26978    301.31578   -1441.2682   -2949854.8      24229.8     -2925625    288999.24    1.0499963    52.475377    52.475377    104.95075 
   10600    26978    298.51257   -533.92421   -2949894.3    24004.385   -2925889.9     289172.3    1.0493679    52.485849    52.485849     104.9717 
   10700    26978    300.44705    343.42726   -2950187.7    24159.942   -2926027.8    288988.34    1.0500359    52.474717    52.474717    104.94943 
   10800    26978    298.27434   -668.34333   -2950033.7    23985.228   -2926048.4    288787.42    1.0507664    52.462554    52.462554    104.92511 
   10900    26978    299.48147   -2713.9733   -2949898.6    24082.297   -2925816.3    288446.26    1.0520092    52.441886    52.441886    104.88377 
   11000    26978    299.86891   -163.46299   -2949635.5    24113.452     -2925522    288343.03    1.0523858     52.43563     52.43563    104.87126 
   11100    26978    302.12082   -278.81377   -2949611.4    24294.536   -2925316.8    288679.65    1.0511587    52.456027    52.456027    104.91205 
   11200    26978    299.90892    926.31167   -2949482.7     24116.67     -2925366    288898.86    1.0503611    52.469301    52.469301     104.9386 
   11300    26978    300.08691   -484.14789   -2949689.6    24130.983   -2925558.6    288578.69    1.0515264    52.449911    52.449911    104.89982 
   11400    26978    296.74859    647.39092   -2949688.4    23862.537   -2925825.8    288261.33    1.0526841    52.430677    52.430677    104.86135 
   11500    26978    301.71084   -1071.6357   -2950210.1    24261.568   -2925948.5    288226.34    1.0528119    52.428555    52.428555    104.85711 
   11600    26978     296.2268    250.33319   -2949837.1    23820.578   -2926016.6    288073.39    1.0533709     52.41928     52.41928    104.83856 
   11700    26978    300.93795   -705.68141   -2949924.4    24199.417     -2925725    288063.21    1.0534081    52.418662    52.418662    104.83732 
   11800    26978    302.27108    423.86145   -2949759.9    24306.619   -2925453.3    288071.03    1.0533795    52.419137    52.419137    104.83827 
   11900    26978    299.62539   -130.54483   -2949753.5     24093.87   -2925659.6    287964.81    1.0537681    52.412693    52.412693    104.82539 
   12000    26978    299.65595   -357.84367   -2949969.4    24096.328   -2925873.1    287673.72    1.0548343    52.395027    52.395027    104.79005 
   12100    26978    298.41836    2261.2005   -2949827.2    23996.809   -2925830.4    287485.46    1.0555251    52.383595    52.383595    104.76719 
   12200    26978    301.96692   -42.562831   -2950013.8     24282.16   -2925731.6    287292.87    1.0562327    52.371895    52.371895    104.74379 
   12300    26978    298.88329    678.77978   -2949908.5    24034.195   -2925874.3    287133.35    1.0568195    52.362199    52.362199     104.7244 
   12400    26978     298.7011    378.90613   -2950093.3    24019.545   -2926073.8    286947.73    1.0575031    52.350914    52.350914    104.70183 
   12500    26978    298.82375   -733.88289   -2950172.6    24029.407   -2926143.2    286781.87    1.0581147    52.340825    52.340825    104.68165 
   12600    26978    301.49566   -285.78946   -2950201.4    24244.265   -2925957.1    286600.76    1.0587834    52.329805    52.329805    104.65961 
   12700    26978    300.87339   -1851.2983     -2949904    24194.226   -2925709.7     286709.7    1.0583811    52.336434    52.336434    104.67287 
   12800    26978     300.9206    1448.8948   -2949782.8    24198.023   -2925584.7    286967.16    1.0574315    52.352095    52.352095    104.70419 
   12900    26978    300.57311   -1047.9645   -2949868.6    24170.079   -2925698.5     286841.9    1.0578933    52.344477    52.344477    104.68895 
   13000    26978    300.07186     406.0733   -2950069.3    24129.773   -2925939.5    286214.25    1.0602132     52.30627     52.30627    104.61254 
   13100    26978    298.93582    1000.3665   -2950225.9    24038.419   -2926187.5     285571.1    1.0626009    52.267062    52.267062    104.53412 
   13200    26978    298.78071   -755.80287   -2950305.5    24025.947   -2926279.5    285730.23    1.0620092    52.276768    52.276768    104.55354 
   13300    26978    296.66447    736.69639   -2949969.5    23855.772   -2926113.7    285629.62    1.0623832    52.270632    52.270632    104.54126 
   13400    26978    302.39601    1134.8961   -2950089.1    24316.665   -2925772.4    285193.08    1.0640094    52.243989    52.243989    104.48798 
   13500    26978    303.69495    1228.1442   -2950247.7    24421.117   -2925826.6    284920.53    1.0650272    52.227341    52.227341    104.45468 
   13600    26978    297.90862    842.16491     -2950288    23955.819   -2926332.2    284782.14    1.0655448    52.218884    52.218884    104.43777 
   13700    26978    296.18703    293.98332   -2950361.7     23817.38   -2926544.3    284730.72    1.0657372    52.215741    52.215741    104.43148 
   13800    26978    298.78415    7.6343882   -2950316.4    24026.223   -2926290.2     284571.5    1.0663335    52.206006    52.206006    104.41201 
   13900    26978    301.61374   -98.754768   -2950226.2     24253.76   -2925972.4    284466.73    1.0667262    52.199598    52.199598     104.3992 
   14000    26978    299.48753    -1020.153     -2950101    24082.784   -2926018.3    284745.31    1.0656826    52.216633    52.216633    104.43327 
   14100    26978    299.01213   -416.53563   -2950171.9    24044.556   -2926127.3    284666.64    1.0659771    52.211824    52.211824    104.42365 
   14200    26978    299.68465   -1316.5707   -2950251.2    24098.635   -2926152.5    284687.99    1.0658972    52.213129    52.213129    104.42626 
   14300    26978    299.16877    509.80211   -2950238.8    24057.152   -2926181.7    284682.11    1.0659192    52.212769    52.212769    104.42554 
   14400    26978    301.55312    811.01225   -2950388.2    24248.885   -2926139.3    284469.79    1.0667148    52.199785    52.199785    104.39957 
   14500    26978    299.12283    102.77847   -2950192.4    24053.458   -2926138.9    284409.31    1.0669416    52.196086    52.196086    104.39217 
   14600    26978    299.26741    1013.3589   -2950132.8    24065.083   -2926067.7    284266.68    1.0674769    52.187359    52.187359    104.37472 
   14700    26978    301.74493    511.25251   -2950224.6    24264.309   -2925960.3    283860.52    1.0690043    52.162492    52.162492    104.32498 
   14800    26978    301.75034    232.70995   -2950312.8    24264.745   -2926048.1    283447.07    1.0705636    52.137154    52.137154    104.27431 
   14900    26978    299.76517   -1201.5255   -2950390.1     24105.11     -2926285    283452.73    1.0705422    52.137502    52.137502      104.275 
   15000    26978    299.45626    1216.5463   -2950285.8     24080.27   -2926205.5    283473.26    1.0704647     52.13876     52.13876    104.27752 
   15100    26978    301.76807   -1546.7027   -2950289.3     24266.17   -2926023.2     283454.5    1.0705356     52.13761     52.13761    104.27522 
   15200    26978    299.34479    699.04422   -2950143.5    24071.306   -2926072.2    283263.08     1.071259    52.125871    52.125871    104.25174 
   15300    26978    301.13773    674.28939   -2950445.6    24215.482   -2926230.1     283085.3    1.0719317    52.114964    52.114964    104.22993 
   15400    26978    295.84532    1346.2912   -2950210.4    23789.902   -2926420.5    282650.26    1.0735816    52.088254    52.088254    104.17651 
   15500    26978    300.81637   -86.991764   -2950443.3    24189.641   -2926253.7    282141.27    1.0755184    52.056969    52.056969    104.11394 
   15600    26978     298.8839    752.67089   -2950109.7    24034.245   -2926075.4    281834.31    1.0766898    52.038083    52.038083    104.07617 
   15700    26978    299.46407    238.44987   -2950117.8    24080.898   -2926036.9    281823.93    1.0767294    52.037444    52.037444    104.07489 
   15800    26978    301.33811    1113.6791   -2950393.2    24231.596   -2926161.6    281513.92    1.0779152    52.018356    52.018356    104.03671 
   15900    26978    298.51612   -467.76263   -2950431.3     24004.67   -2926426.6    281611.74    1.0775407    52.024381    52.024381    104.04876 
   16000    26978    299.05998   -50.900381   -2950582.3    24048.404   -2926533.9    281322.18    1.0786498    52.006544    52.006544    104.01309 
   16100    26978    298.87044   -452.52028   -2950622.6    24033.162   -2926589.4    280880.43    1.0803462    51.979308    51.979308    103.95862 
   16200    26978    298.61693    609.64308   -2950500.1    24012.777   -2926487.3    280486.06    1.0818652     51.95497     51.95497    103.90994 
   16300    26978    299.47351    2027.9689   -2950354.1    24081.657   -2926272.5    280118.11    1.0832863    51.932241    51.932241    103.86448 
   16400    26978    302.31655    918.04841     -2950407    24310.275   -2926096.8    280041.44    1.0835829    51.927502    51.927502      103.855 
   16500    26978    299.76557    1536.1028   -2950340.4    24105.142   -2926235.2    280157.38    1.0831345    51.934668    51.934668    103.86934 
   16600    26978     299.8661   -1108.3018   -2950638.2    24113.226   -2926524.9    280236.21    1.0828298    51.939538    51.939538    103.87908 
   16700    26978    297.43571   -1441.1453   -2950627.3    23917.791   -2926709.5    280239.23    1.0828182    51.939725    51.939725    103.87945 
   16800    26978    297.29568    382.21838   -2950524.2     23906.53   -2926617.6    279741.76    1.0847437    51.908973    51.908973    103.81795 
   16900    26978    300.39416   -2559.5436   -2950541.4     24155.69   -2926385.7    279167.89    1.0869736    51.873453    51.873453    103.74691 
   17000    26978    299.64977    1031.2499   -2950464.4     24095.83   -2926368.5     278853.1    1.0882006    51.853948    51.853948     103.7079 
   17100    26978    300.14915    705.02184   -2950487.8    24135.987   -2926351.8    278615.62    1.0891282    51.839223    51.839223    103.67845 
   17200    26978    299.74302    -1161.666   -2950375.4    24103.329   -2926272.1    278741.56    1.0886361    51.847033    51.847033    103.69407 
   17300    26978    300.48568    -1927.103   -2950454.7    24163.049   -2926291.6    278799.64    1.0884093    51.850634    51.850634    103.70127 
   17400    26978    297.98592   -830.59351   -2950383.4    23962.035   -2926421.4    278568.77    1.0893113    51.836318    51.836318    103.67264 
   17500    26978     301.5921   -103.86362   -2950677.4     24252.02   -2926425.4    278213.91    1.0907007    51.814298    51.814298     103.6286 
   17600    26978    300.37748    1391.7152   -2950633.5    24154.348   -2926479.2    278076.48    1.0912398    51.805764    51.805764    103.61153 
   17700    26978    298.02767   -1178.2311   -2950519.3    23965.393     -2926554    277579.18    1.0931948    51.774863    51.774863    103.54973 
   17800    26978    300.12172     1145.715   -2950591.8    24133.782     -2926458    277211.98    1.0946429    51.752023    51.752023    103.50405 
   17900    26978    301.69969    803.00645   -2950744.2    24260.672   -2926483.6     276900.1    1.0958758    51.732608    51.732608    103.46522 
   18000    26978    297.52833    2126.6968     -2950620    23925.239   -2926694.8    276658.58    1.0968325    51.717563    51.717563    103.43513 
   18100    26978    298.95708    -691.5762   -2950719.2    24040.129   -2926679.1    276404.87    1.0978393    51.701748    51.701748     103.4035 
   18200    26978    300.40066   -851.67537   -2950651.2    24156.212     -2926495    276124.47    1.0989541    51.684259    51.684259    103.36852 
   18300    26978    299.90396   -108.41914   -2950450.8    24116.271   -2926334.5    276068.66    1.0991763    51.680777    51.680777    103.36155 
   18400    26978      300.774    1775.4707   -2950560.6    24186.234   -2926374.4    276381.97    1.0979302    51.700321    51.700321    103.40064 
   18500    26978     299.1088    189.63033   -2950693.9     24052.33   -2926641.6    276848.68    1.0960793    51.729406    51.729406    103.45881 
   18600    26978      297.565    158.61002   -2950710.9    23928.187   -2926782.7    277158.76    1.0948531    51.748711    51.748711    103.49742 
   18700    26978    299.93809   -1135.1057   -2950689.3    24119.016   -2926570.2    276964.01    1.0956229    51.736588    51.736588    103.47318 
   18800    26978    301.71405    505.94418     -2950653    24261.827   -2926391.2    276416.77     1.097792    51.702491    51.702491    103.40498 
   18900    26978    302.11676    1104.6229   -2950782.4     24294.21   -2926488.2    276043.79    1.0992753    51.679226    51.679226    103.35845 
   19000    26978    300.10789   -331.67616   -2950843.5    24132.669   -2926710.8    276055.51    1.0992286    51.679957    51.679957    103.35991 
   19100    26978    297.57002    275.37483     -2950780    23928.591   -2926851.4    276506.29    1.0974366    51.708071    51.708071    103.41614 
   19200    26978    299.11883   -1385.6918   -2950874.7    24053.136   -2926821.5    276565.94    1.0971999    51.711789    51.711789    103.42358 
   19300    26978     300.0902   -999.22973   -2950789.6    24131.247   -2926658.3    276524.02    1.0973662    51.709177    51.709177    103.41835 
   19400    26978     299.0986    2166.3147   -2950502.4    24051.509   -2926450.9       276588    1.0971124    51.713164    51.713164    103.42633 
   19500    26978    301.89422   -278.00591     -2950641    24276.315   -2926364.7     276551.5    1.0972572    51.710889    51.710889    103.42178 
   19600    26978     300.7727   -2774.2037   -2950747.3     24186.13   -2926561.2    276643.54    1.0968921    51.716625    51.716625    103.43325 
   19700    26978    297.93916   -2493.8855     -2950841    23958.275   -2926882.7    276347.01    1.0980691    51.698141    51.698141    103.39628 
   19800    26978    298.19926   -1032.1379   -2950953.1     23979.19   -2926973.9    275851.39     1.100042    51.667216    51.667216    103.33443 
   19900    26978    301.20541   -454.63509   -2950976.6    24220.925   -2926755.7    275312.43    1.1021955    51.633545    51.633545    103.26709 
   20000    26978    302.21476    1056.2578   -2950831.5     24302.09   -2926529.4    275078.85    1.1031314    51.618938    51.618938    103.23788 
   20100    26978    304.02332   -1430.9594   -2950931.7    24447.522   -2926484.1    275406.99     1.101817    51.639456    51.639456    103.27891 
   20200    26978     300.9699    1580.6952   -2950863.5    24201.987   -2926661.5    275499.55    1.1014469     51.64524     51.64524    103.29048 
   20300    26978      299.867    2514.5088   -2950993.1    24113.299   -2926879.8    275595.01    1.1010654    51.651204    51.651204    103.30241 
   20400    26978    301.48507    -1314.356   -2951246.4    24243.413     -2927003    275577.21    1.1011365    51.650092    51.650092    103.30018 
   20500    26978    298.68118    752.38577   -2950938.3    24017.943   -2926920.4    275340.41    1.1020835    51.635294    51.635294    103.27059 
   20600    26978    302.53366    895.26131   -2950956.2    24327.734   -2926628.4     275282.7    1.1023145    51.631686    51.631686    103.26337 
   20700    26978    303.19768    -710.8407   -2950954.5     24381.13   -2926573.4    275371.29    1.1019599    51.637224    51.637224    103.27445 
   20800    26978    301.20932    1061.8332   -2950929.3     24221.24     -2926708    275269.46    1.1023675    51.630858    51.630858    103.26172 
   20900    26978    301.13624   -1738.3106   -2951029.2    24215.363   -2926813.8    275104.13      1.10303     51.62052     51.62052    103.24104 
   21000    26978    297.30111   -2204.8494   -2950910.1    23906.967   -2927003.2    274760.81    1.1044083    51.599037    51.599037    103.19807 
   21100    26978    299.59297   -202.18333   -2951000.9    24091.263   -2926909.7    274525.87    1.1053535    51.584326    51.584326    103.16865 
   21200    26978    301.99962    478.43476   -2950908.3     24284.79   -2926623.5    274647.76    1.1048629    51.591959    51.591959    103.18392 
   21300    26978    302.71945    -747.2694   -2950799.3    24342.674   -2926456.6    274816.92    1.1041828    51.602549    51.602549     103.2051 
   21400    26978     301.7189    484.92297   -2950837.1    24262.216   -2926574.9    274592.91    1.1050836    51.588525    51.588525    103.17705 
   21500    26978    299.26979   -782.70479   -2950835.2    24065.275   -2926769.9    274301.52    1.1062575     51.57027     51.57027    103.14054 
   21600    26978    298.15607   -524.80517   -2950890.5    23975.717   -2926914.7    273963.52    1.1076224    51.549079    51.549079    103.09816 
   21700    26978    299.97925   -886.14895   -2950988.1    24122.325   -2926865.8    273540.76    1.1093342     51.52255     51.52255     103.0451 
   21800    26978    300.28895    3159.2244   -2951043.7    24147.229   -2926896.5     273032.8     1.111398    51.490639    51.490639    102.98128 
   21900    26978     300.6027    564.86187   -2951250.1    24172.459   -2927077.6    272527.75    1.1134577     51.45887     51.45887    102.91774 
   22000    26978    301.14212    245.31782   -2951463.2    24215.836   -2927247.4    272233.53    1.1146611    51.440345    51.440345    102.88069 
   22100    26978    297.06656    2755.7392   -2951245.3    23888.106   -2927357.2    271942.83    1.1158526    51.422029    51.422029    102.84406 
   22200    26978    300.26649    1398.6592   -2951210.2    24145.423   -2927064.8    271611.82    1.1172125    51.401156    51.401156    102.80231 
   22300    26978    300.38229    1855.2901     -2950945    24154.735   -2926790.3    271691.55    1.1168847    51.406185    51.406185    102.81237 
   22400    26978    303.20724    261.34982   -2951128.6    24381.899   -2926746.7    271790.89    1.1164764     51.41245     51.41245     102.8249 
   22500    26978    299.55113    449.73832   -2951093.6    24087.899   -2927005.7    271861.07    1.1161882    51.416875    51.416875    102.83375 
   22600    26978    296.60019   -829.88718   -2951090.3    23850.604   -2927239.7    272040.54    1.1154518    51.428187    51.428187    102.85637 
   22700    26978    300.38354    474.28132   -2951365.6    24154.836   -2927210.7    271738.19    1.1166929    51.409127    51.409127    102.81825 
   22800    26978    298.99379    669.86351   -2951078.6    24043.081   -2927035.5    271200.91    1.1189053    51.375222    51.375222    102.75044 
   22900    26978     301.6476   -104.89096   -2951124.3    24256.482   -2926867.8    271156.61     1.119088    51.372425    51.372425    102.74485 
   23000    26978    297.19168    -583.8843   -2950840.1    23898.168   -2926941.9    271355.51    1.1182678    51.384983    51.384983    102.76997 
   23100    26978    301.23038    -387.4233   -2951202.3    24222.933   -2926979.4    271865.82    1.1161687    51.417174    51.417174    102.83435 
   23200    26978    300.97877    1838.0153   -2951253.7      24202.7     -2927051    271880.73    1.1161075    51.418114    51.418114    102.83623 
   23300    26978     298.9072    128.16723   -2951184.8    24036.118   -2927148.7    271885.12    1.1160895    51.418391    51.418391    102.83678 
   23400    26978    297.68241   -2192.6122   -2951048.7    23937.629   -2927111.1    271782.39    1.1165113    51.411914    51.411914    102.82383 
   23500    26978     299.5751     979.5646   -2951071.1    24089.827   -2926981.3    271552.75    1.1174555     51.39743     51.39743    102.79486 
   23600    26978    299.09978    1075.6032   -2950942.5    24051.604   -2926890.9    271397.42    1.1180951    51.387628    51.387628    102.77526 
   23700    26978    300.82677    1183.7118   -2951128.8    24190.477   -2926938.4    271201.32    1.1189035    51.375249    51.375249     102.7505 
   23800    26978    298.98572    153.88654   -2951218.8    24042.433   -2927176.3    271294.37    1.1185198    51.381124    51.381124    102.76225 
   23900    26978    298.32459    306.62092   -2951246.7    23989.268   -2927257.4    271509.68    1.1176328    51.394712    51.394712    102.78942 
   24000    26978    298.09877   -858.31063   -2951042.5     23971.11   -2927071.4    271338.81    1.1183366    51.383929    51.383929    102.76786 
   24100    26978    303.92373    2161.1115   -2951174.7    24439.514   -2926735.2    271084.47    1.1193859    51.367869    51.367869    102.73574 
   24200    26978    301.90744     1618.712   -2951007.1    24277.377   -2926729.7    270890.92    1.1201856    51.355641    51.355641    102.71128 
   24300    26978    299.61715    -78.04141   -2951191.3    24093.207   -2927098.1     270522.5    1.1217112    51.332348    51.332348     102.6647 
   24400    26978    299.28347   -215.65109   -2951502.2    24066.375   -2927435.9    270225.83    1.1229427    51.313577    51.313577    102.62715 
   24500    26978    299.99397   -1314.3466   -2951590.4    24123.509   -2927466.9    269945.45     1.124109    51.295823    51.295823    102.59165 
   24600    26978     300.2516    603.17338   -2951349.9    24144.226   -2927205.7    269667.91    1.1252659    51.278238    51.278238    102.55648 
   24700    26978     299.7655   -508.31694   -2950975.8    24105.137   -2926870.7     269509.7    1.1259265    51.268208    51.268208    102.53642 
   24800    26978    303.33423   -388.23579   -2951128.6     24392.11   -2926736.4    269514.95    1.1259046    51.268541    51.268541    102.53708 
   24900    26978    298.50337    1503.2561   -2950930.5    24003.645   -2926926.8    269164.28    1.1273714    51.246296    51.246296    102.49259 
   25000    26978    299.89929   -957.50331   -2951187.5    24115.895   -2927071.6     269038.5    1.1278985    51.238312    51.238312    102.47662 
   25100    26978    299.72354   -350.20282   -2951289.9    24101.763   -2927188.1    269295.12    1.1268237    51.254598    51.254598     102.5092 
   25200    26978    300.96389   -1713.0952   -2951297.9    24201.503   -2927096.4    269518.35    1.1258904    51.268756    51.268756    102.53751 
   25300    26978    298.38374    383.06609   -2950996.5    23994.025   -2927002.5     269349.1    1.1265978    51.258022    51.258022    102.51604 
   25400    26978    300.45506    798.51635   -2951026.2    24160.586   -2926865.6     269013.4    1.1280037    51.236719    51.236719    102.47344 
   25500    26978    302.55154    1054.2826   -2951141.6    24329.172   -2926812.5    269000.33    1.1280586    51.235888    51.235888    102.47178 
   25600    26978    299.82903   -950.91415   -2951194.6    24110.245   -2927084.4    268834.71    1.1287535    51.225372    51.225372    102.45074 
   25700    26978     300.1877   -202.51004   -2951433.3    24139.088   -2927294.3    268496.54    1.1301751    51.203884    51.203884    102.40777 
   25800    26978    298.65277    1784.5649   -2951380.3    24015.659   -2927364.6    268382.95    1.1306535    51.196661    51.196661    102.39332 
   25900    26978    298.09996    12.937036   -2951309.9    23971.205   -2927338.7    268059.98    1.1320157    51.176117    51.176117    102.35223 
   26000    26978    301.07182    1440.3047     -2951273    24210.182   -2927062.8    267640.22    1.1337912     51.14939     51.14939    102.29878 
   26100    26978    301.73705   -2611.9205   -2951127.5    24263.676   -2926863.8    267609.64    1.1339207    51.147442    51.147442    102.29488 
   26200    26978    301.62586    601.32881   -2951230.8    24254.734   -2926976.1    267529.64    1.1342598    51.142345    51.142345    102.28469 
   26300    26978    298.92525   -86.688044   -2951292.1     24037.57   -2927254.6    267589.21    1.1340073     51.14614     51.14614    102.29228 
   26400    26978    298.05532    986.80509     -2951353    23967.615   -2927385.3    267419.32    1.1347277    51.135314    51.135314    102.27063 
   26500    26978    299.64707    347.31599   -2951342.1    24095.614   -2927246.5    267418.01    1.1347333    51.135231    51.135231    102.27046 
   26600    26978    301.19636   -674.48134   -2951294.3    24220.197   -2927074.1    267722.88    1.1334411    51.154656    51.154656    102.30931 
   26700    26978     299.2089   -2216.7144   -2951112.4    24060.379     -2927052    267429.93    1.1346827     51.13599     51.13599    102.27198 
   26800    26978    299.88268   -1063.9511   -2951192.7     24114.56   -2927078.2     267144.9    1.1358934    51.117817    51.117817    102.23563 
   26900    26978    299.87916     333.0691     -2951223    24114.277   -2927108.8    267397.84    1.1348189    51.133945    51.133945    102.26789 
   27000    26978    301.51093   -1097.5302   -2951370.6    24245.493   -2927125.1    267556.77    1.1341448    51.144074    51.144074    102.28815 
   27100    26978    301.08704   -855.06244   -2951476.1    24211.406   -2927264.7    267795.92     1.133132    51.159307    51.159307    102.31861 
   27200    26978     296.4404    1926.1456   -2951194.9    23837.755   -2927357.1     267959.2    1.1324415    51.169703    51.169703    102.33941 
   27300    26978    300.24361    1889.1401   -2951251.3    24143.583   -2927107.7    267978.28    1.1323609    51.170917    51.170917    102.34183 
   27400    26978    302.41953   -845.20855     -2951147    24318.556   -2926828.5    267973.13    1.1323827    51.170589    51.170589    102.34118 
   27500    26978    300.97142    1277.7778   -2951028.1    24202.109   -2926825.9    268040.25    1.1320991    51.174861    51.174861    102.34972 
   27600    26978    298.81734   -808.66711   -2951044.8    24028.892   -2927015.9    268119.95    1.1317625    51.179933    51.179933    102.35987 
   27700    26978    297.68996   -197.50834   -2951119.2    23938.236   -2927180.9    267851.38    1.1328973    51.162839    51.162839    102.32568 
   27800    26978    299.52447   -75.908258   -2951241.4    24085.755   -2927155.7    267482.33    1.1344604     51.13933     51.13933    102.27866 
   27900    26978    299.85758    179.99658     -2951264    24112.542   -2927151.4    267388.91    1.1348568    51.133376    51.133376    102.26675 
   28000    26978    298.75673     1672.636   -2951333.9    24024.018   -2927309.8    267224.62    1.1355545    51.122901    51.122901     102.2458 
   28100    26978    298.90764    718.40533   -2951446.6    24036.153   -2927410.5    267161.28    1.1358237    51.118862    51.118862    102.23772 
   28200    26978     299.4178   -499.39342   -2951484.3    24077.177   -2927407.1    267162.18    1.1358199    51.118919    51.118919    102.23784 
   28300    26978    302.02252   -752.65632   -2951745.9    24286.631   -2927459.3    267415.45    1.1347441    51.135068    51.135068    102.27014 
   28400    26978    299.57664   -649.95141   -2951715.7     24089.95   -2927625.8    267452.32    1.1345877    51.137417    51.137417    102.27483 
   28500    26978    297.87589    436.01092   -2951606.6    23953.187   -2927653.5    267698.13    1.1335459    51.153079    51.153079    102.30616 
   28600    26978    299.27891    714.16945   -2951376.5    24066.009   -2927310.5     267871.4    1.1328127    51.164113    51.164113    102.32823 
   28700    26978    299.22361   -979.12193   -2951081.3    24061.562   -2927019.7    267663.45    1.1336928     51.15087     51.15087    102.30174 
   28800    26978    301.84225    2085.7848   -2951177.3    24272.135   -2926905.2    267539.59    1.1342176    51.142979    51.142979    102.28596 
   28900    26978    300.26952     1208.245   -2951171.9    24145.667   -2927026.2    267521.76    1.1342932    51.141843    51.141843    102.28369 
   29000    26978    300.13397   -938.37039   -2951341.2    24134.767   -2927206.5    267680.37    1.1336211    51.151948    51.151948     102.3039 
   29100    26978    299.44157    1174.4698   -2951291.4    24079.089   -2927212.3    267481.51    1.1344639    51.139278    51.139278    102.27856 
   29200    26978      300.849    103.07117     -2951303    24192.265   -2927110.7    267527.69    1.1342681    51.142221    51.142221    102.28444 
   29300    26978    302.39628   -1587.0373   -2951416.6    24316.687   -2927099.9    267468.85    1.1345176    51.138471    51.138471    102.27694 
   29400    26978    300.07315   -518.68882   -2951454.3    24129.876   -2927324.4    267481.97     1.134462    51.139307    51.139307    102.27861 
   29500    26978    297.75734   -976.90515   -2951472.4    23943.654   -2927528.7    267410.38    1.1347657    51.134745    51.134745    102.26949 
   29600    26978    299.06163    2363.5742   -2951531.7    24048.537   -2927483.1    267276.39    1.1353346    51.126202    51.126202     102.2524 
   29700    26978    300.61202    978.62963   -2951538.3    24173.209   -2927365.1    267053.99    1.1362801    51.112017    51.112017    102.22403 
   29800    26978    300.37938   -1764.9218   -2951275.5    24154.501     -2927121    267274.44    1.1353428    51.126078    51.126078    102.25216 
   29900    26978    302.08081   -1054.7222   -2951245.8    24291.319   -2926954.5    267189.03    1.1357058    51.120631    51.120631    102.24126 
   30000    26978    300.63813   -334.47934   -2951236.1    24175.308   -2927060.8    266694.57    1.1378114    51.089077    51.089077    102.17815 
   30100    26978    299.82474    1933.0537   -2951306.9      24109.9     -2927197    266420.64    1.1389813     51.07158     51.07158    102.14316 
   30200    26978    300.20313    912.33888   -2951574.7    24140.328   -2927434.3    266227.46    1.1398077    51.059233    51.059233    102.11847 
   30300    26978    299.37749   -2071.4002     -2951603    24073.935   -2927529.1     266135.6    1.1402012    51.053359    51.053359    102.10672 
   30400    26978    298.69103     1490.948   -2951431.5    24018.735   -2927412.8    266191.73    1.1399608    51.056948    51.056948     102.1139 
   30500    26978    301.98614   -867.81234   -2951530.4    24283.706   -2927246.7    266323.01    1.1393988     51.06534     51.06534    102.13068 
   30600    26978    299.66994   -923.54259   -2951376.2    24097.452   -2927278.8     266584.6    1.1382807    51.082054    51.082054    102.16411 
   30700    26978    299.64068    99.741692   -2951563.1    24095.099     -2927468    266891.24     1.136973    51.101632    51.101632    102.20326 
   30800    26978    296.62761    578.12042   -2951601.2    23852.808   -2927748.4    266800.54    1.1373595    51.095843    51.095843    102.19169 
   30900    26978    298.82897    -2043.976   -2951562.1    24029.827   -2927532.3    266377.92    1.1391639     51.06885     51.06885     102.1377 
   31000    26978    300.59775   -1841.4546     -2951493    24172.061     -2927321    265926.93    1.1410959    51.040013    51.040013    102.08003 
   31100    26978    301.37481     651.2794   -2951587.6    24234.547   -2927353.1    265353.26    1.1435628    51.003285    51.003285    102.00657 
   31200    26978    300.00126    490.51042     -2951645    24124.095   -2927520.9    265117.88    1.1445781    50.988199    50.988199     101.9764 
   31300    26978    296.72538    1823.8292   -2951581.7    23860.671     -2927721    265001.73    1.1450797    50.980752    50.980752     101.9615 
   31400    26978    299.79401    232.04147   -2951653.7    24107.429   -2927546.2    265073.85    1.1447682    50.985376    50.985376    101.97075 
   31500    26978    300.84706   -1050.2521   -2951454.7    24192.109   -2927262.6    265116.62    1.1445835    50.988118    50.988118    101.97624 
   31600    26978    299.68724   -1611.5825   -2951385.5    24098.844   -2927286.7     264991.1    1.1451257     50.98007     50.98007    101.96014 
   31700    26978    303.21378    893.74462     -2951709    24382.424   -2927326.5    265177.11    1.1443224    50.991996    50.991996    101.98399 
   31800    26978    297.25881    2520.8097   -2951528.5    23903.565   -2927624.9    265326.95    1.1436762    51.001598    51.001598     102.0032 
   31900    26978    297.24681    1417.4396     -2951560      23902.6   -2927657.3    265388.96     1.143409    51.005572    51.005572    102.01114 
   32000    26978     296.4051   -659.19446     -2951385    23834.916     -2927550    265658.36    1.1422495    51.022824    51.022824    102.04565 
   32100    26978    300.91049   -1467.0252   -2951534.8    24197.209   -2927337.5    265747.78    1.1418651    51.028548    51.028548     102.0571 
   32200    26978    298.74126    132.02679   -2951341.1    24022.775   -2927318.3       265835    1.1414905     51.03413     51.03413    102.06826 
   32300    26978    300.17136    747.36983   -2951451.9    24137.773   -2927314.2    265899.19    1.1412149    51.038238    51.038238    102.07648 
   32400    26978    300.51394   -208.82031   -2951496.7    24165.322   -2927331.3    265919.21     1.141129    51.039519    51.039519    102.07904 
   32500    26978    297.08713    426.12633   -2951347.3    23889.761   -2927457.5    265920.12    1.1411251    51.039577    51.039577    102.07915 
   32600    26978    296.85628   -311.76311   -2951551.9    23871.197   -2927680.7    265802.47    1.1416302    51.032049    51.032049     102.0641 
   32700    26978    297.54932    1062.7444   -2951581.8    23926.927   -2927654.9    265597.33    1.1425119    51.018917    51.018917    102.03783 
   32800    26978    301.44501   -1193.2327     -2951651    24240.192   -2927410.8    265609.39    1.1424601    51.019689    51.019689    102.03938 
   32900    26978    300.48546   -343.35718   -2951501.7    24163.031   -2927338.6    265522.65    1.1428333    51.014135    51.014135    102.02827 
   33000    26978    300.20645    2696.4989   -2951582.9    24140.595   -2927442.3    265572.77    1.1426176    51.017344    51.017344    102.03469 
   33100    26978    299.27044    1331.7115   -2951566.3    24065.328     -2927501    265603.03    1.1424874    51.019282    51.019282    102.03856 
   33200    26978    299.97222   -554.97362   -2951652.5     24121.76   -2927530.7    265518.41    1.1428515    51.013863    51.013863    102.02773 
   33300    26978    299.19269   -68.937547   -2951661.9    24059.076   -2927602.8     265491.4    1.1429678    51.012133    51.012133    102.02427 
   33400    26978    298.84767    1035.1959   -2951582.3    24031.331   -2927550.9    265884.74    1.1412769    51.037313    51.037313    102.07463 
   33500    26978     301.7346   -916.20749   -2951480.2    24263.479   -2927216.7    266048.54    1.1405743    51.047792    51.047792    102.09558 
   33600    26978    300.13291    373.18695   -2951384.8    24134.681   -2927250.2    266262.71    1.1396569    51.061486    51.061486    102.12297 
   33700    26978     301.2809    3054.8264   -2951603.2    24226.995   -2927376.2    266519.95    1.1385569    51.077924    51.077924    102.15585 
   33800    26978    297.80848   -1375.1427   -2951510.7    23947.767   -2927562.9    266810.65    1.1373164    51.096488    51.096488    102.19298 
   33900    26978    298.74686     1565.416   -2951621.4    24023.225   -2927598.1    266847.68    1.1371585    51.098852    51.098852     102.1977 
   34000    26978      300.004   -620.50777   -2951389.6    24124.315   -2927265.3    266837.61    1.1372014     51.09821     51.09821    102.19642 
   34100    26978    301.06886   -281.90237   -2951308.1    24209.944   -2927098.1    266493.26    1.1386709     51.07622     51.07622    102.15244 
   34200    26978    300.62981      644.379     -2951340    24174.639   -2927165.4    266203.84    1.1399089    51.057722    51.057722    102.11544 
   34300    26978    298.69902   -2002.4281   -2951419.6    24019.378   -2927400.2    265741.52     1.141892    51.028148    51.028148     102.0563 
   34400    26978    298.76039   -1865.9087   -2951554.6    24024.313   -2927530.2    265411.55    1.1433116    51.007019    51.007019    102.01404 
   34500    26978    301.03432    975.11165   -2951700.6    24207.167   -2927493.4    264972.51    1.1452061    50.978878    50.978878    101.95776 
   34600    26978    300.53884    247.85376   -2951767.3    24167.324     -2927600    264813.01    1.1458958    50.968648    50.968648     101.9373 
   34700    26978     296.9004   -953.84535   -2951753.7    23874.745     -2927879    265050.33    1.1448698    50.983869    50.983869    101.96774 
   34800    26978    296.34491   -238.90352     -2951713    23830.076   -2927882.9    265507.96    1.1428965    51.013194    51.013194    102.02639 
   34900    26978     299.2417    -68.98588   -2951634.6    24063.017   -2927571.5     265561.9    1.1426644    51.016648    51.016648     102.0333 
   35000    26978    300.19211    613.26727   -2951612.4    24139.442     -2927473     265694.7    1.1420932    51.025151    51.025151     102.0503 
   35100    26978    298.01547   -735.61548   -2951470.2    23964.411   -2927505.8    265857.94     1.141392    51.035598    51.035598     102.0712 
   35200    26978    301.54784    396.57405   -2951688.8     24248.46   -2927440.4    265724.74    1.1419641    51.027074    51.027074    102.05415 
   35300    26978    300.75246   -418.99336   -2951414.6    24184.502   -2927230.1    265694.93    1.1420922    51.025166    51.025166    102.05033 
   35400    26978    302.00811    -998.1507     -2951386    24285.472   -2927100.6    265527.24    1.1428135    51.014429    51.014429    102.02886 
   35500    26978    299.64504    876.47035   -2951477.7     24095.45   -2927382.3    265371.35    1.1434848    51.004444    51.004444    102.00889 
   35600    26978    298.79652     241.1537   -2951558.6    24027.218   -2927531.4    265626.38     1.142387    51.020777    51.020777    102.04155 
   35700    26978    298.23938   -2113.7979   -2951449.2    23982.416   -2927466.8    265591.87    1.1425354    51.018568    51.018568    102.03714 
   35800    26978    299.99034   -114.58614   -2951481.9    24123.217   -2927358.7    265304.72     1.143772    51.000174    51.000174    102.00035 
   35900    26978    301.02267   -184.41083   -2951474.2     24206.23   -2927267.9    264908.14    1.1454843     50.97475     50.97475     101.9495 
   36000    26978     301.1539    -574.2463   -2951329.7    24216.782   -2927112.9    264868.32    1.1456565    50.972196    50.972196    101.94439 
   36100    26978    300.33124    396.24931   -2951370.6     24150.63   -2927219.9       264838    1.1457877     50.97025     50.97025     101.9405 
   36200    26978    300.67876   -290.91416   -2951699.6    24178.575     -2927521    264765.61     1.146101    50.965606    50.965606    101.93121 
   36300    26978     298.5228    995.70143   -2951622.8    24005.208   -2927617.6     264708.6    1.1463478    50.961948    50.961948     101.9239 
   36400    26978    299.65925    1400.8877     -2951642    24096.593   -2927545.4    264789.34    1.1459982    50.967129    50.967129    101.93426 
   36500    26978    297.95543    -798.5506   -2951528.3    23959.583   -2927568.7    264845.59    1.1457549    50.970737    50.970737    101.94147 
   36600    26978    299.77324    501.48607   -2951897.4    24105.759   -2927791.6    264954.23     1.145285    50.977706    50.977706    101.95541 
   36700    26978     297.9194   -2068.8987   -2951829.4    23956.686   -2927872.7    265091.69    1.1446912     50.98652     50.98652    101.97304 
   36800    26978    300.43009    739.80439   -2951768.5    24158.579   -2927609.9    265015.23    1.1450214    50.981618    50.981618    101.96324 
   36900    26978    299.61924   -1394.3656   -2951580.1    24093.376   -2927486.8    265035.71     1.144933    50.982931    50.982931    101.96586 
   37000    26978    299.72591    1093.0398   -2951650.2    24101.953   -2927548.2    264841.11    1.1457742     50.97045     50.97045     101.9409 
   37100    26978    299.28076    279.60461   -2951769.4    24066.158   -2927703.2    264779.29    1.1460417    50.966484    50.966484    101.93297 
   37200    26978    297.64432    657.29321   -2951643.3    23934.566   -2927708.7    264589.52    1.1468637    50.954305    50.954305    101.90861 
   37300    26978    300.74048   -278.73315   -2951520.3    24183.538   -2927336.7    264445.18    1.1474897    50.945038    50.945038    101.89008 
   37400    26978    300.16234    140.81974     -2951416    24137.048   -2927278.9    264432.69    1.1475439    50.944235    50.944235    101.88847 
   37500    26978    299.52604   -583.86208   -2951491.9    24085.881     -2927406    264595.18    1.1468392    50.954668    50.954668    101.90934 
   37600    26978    299.58457    1011.6313   -2951665.6    24090.588     -2927575    264698.06    1.1463934    50.961271    50.961271    101.92254 
   37700    26978    297.30802   -692.75667   -2951579.2    23907.523   -2927671.6    265028.89    1.1449624    50.982493    50.982493    101.96499 
   37800    26978    301.90744   -987.04004   -2951736.1    24277.377   -2927458.7    265318.33    1.1437134    51.001046    51.001046    102.00209 
   37900    26978    300.44512    -785.3553   -2951405.6    24159.788   -2927245.8    265264.54    1.1439453      50.9976      50.9976     101.9952 
   38000    26978    301.67716   -901.34089   -2951536.9    24258.859     -2927278    265237.22    1.1440631    50.995849    50.995849     101.9917 
   38100    26978     299.0316   -977.99359   -2951531.6    24046.122   -2927485.5    265304.38    1.1437735    51.000152    51.000152     102.0003 
   38200    26978     299.0116   -401.49126   -2951729.4    24044.514   -2927684.9    265408.78    1.1433236    51.006841    51.006841    102.01368 
   38300    26978    299.71579    1175.3359   -2951778.2    24101.139   -2927677.1    265386.16    1.1434211    51.005392    51.005392    102.01078 
   38400    26978    300.94743   -218.07591   -2951768.2     24200.18     -2927568    265396.92    1.1433747    51.006081    51.006081    102.01216 
   38500    26978    300.61771   -4034.9401   -2951753.1    24173.666   -2927579.5    265434.68    1.1432121      51.0085      51.0085      102.017 
   38600    26978    297.76766   -2887.1957   -2951728.8    23944.484   -2927784.3    265226.29    1.1441103    50.995148    50.995148     101.9903 
   38700    26978     296.0995   -576.19782   -2951803.3    23810.342     -2927993    264944.09    1.1453289    50.977056    50.977056    101.95411 
   38800    26978    298.80795    467.93044   -2951899.3    24028.137   -2927871.2    264887.19    1.1455749    50.973406    50.973406    101.94681 
   38900    26978    300.53031    1712.2893   -2951788.9    24166.638   -2927622.3    264827.33    1.1458339    50.969566    50.969566    101.93913 
   39000    26978    300.19787   -1344.1785   -2951769.4    24139.905   -2927629.5    264671.87    1.1465069    50.959591    50.959591    101.91918 
   39100    26978    299.16329    -2298.277   -2951740.7    24056.711     -2927684    264382.01    1.1477639     50.94098     50.94098    101.88196 
   39200    26978    298.58286    86.208037   -2951730.7    24010.037   -2927720.7    264400.11    1.1476853    50.942143    50.942143    101.88429 
   39300    26978    301.41374   -452.02173     -2951788    24237.677   -2927550.3    264450.13    1.1474682    50.945355    50.945355    101.89071 
   39400    26978    300.49643   -286.53747   -2951608.5    24163.913   -2927444.6    264652.95    1.1465888    50.958376    50.958376    101.91675 
   39500    26978    301.78167    929.23536   -2951684.7    24267.264   -2927417.5    264990.46    1.1451285     50.98003     50.98003    101.96006 
   39600    26978    298.10782   -932.60856   -2951429.3    23971.837   -2927457.4    265387.58    1.1434149    51.005483    51.005483    102.01097 
   39700    26978    299.56727    989.69729   -2951647.8    24089.197   -2927558.6    265295.65    1.1438111    50.999593    50.999593    101.99919 
   39800    26978    300.18297     1128.532   -2951781.4    24138.707   -2927642.7    265061.78    1.1448203    50.984603    50.984603    101.96921 
   39900    26978    298.90118   -877.00206     -2951785    24035.634   -2927749.4    265228.59    1.1441004    50.995295    50.995295    101.99059 
   40000    26978    296.86024    -733.1134   -2951737.1    23871.515   -2927865.6    265517.36    1.1428561    51.013796    51.013796    102.02759 
   40100    26978    300.15696   -2346.2521     -2951781    24136.616   -2927644.4    265653.31    1.1422712    51.022501    51.022501      102.045 
   40200    26978    300.59971    1992.9694   -2951602.2    24172.218     -2927430    265466.11    1.1430767    51.010514    51.010514    102.02103 
   40300    26978     299.3322    1746.0958   -2951501.5    24070.294   -2927431.2    265143.22    1.1444687    50.989824    50.989824    101.97965 
   40400    26978    300.40869    -1249.733   -2951688.3    24156.858   -2927531.5    265000.94    1.1450832    50.980701    50.980701     101.9614 
   40500    26978    299.55713   -548.50181   -2951851.2    24088.382   -2927762.8     264954.4    1.1452843    50.977717    50.977717    101.95543 
   40600    26978    297.23151    827.01925     -2951916     23901.37   -2928014.6     264924.3    1.1454145    50.975786    50.975786    101.95157 
   40700    26978    297.60359   -124.90753   -2951789.9     23931.29   -2927858.6    264707.89    1.1463509    50.961902    50.961902     101.9238 
   40800    26978    301.16278    599.29834   -2951881.8    24217.497   -2927664.3    264579.69    1.1469063    50.953674    50.953674    101.90735 
   40900    26978    300.90653   -306.29403   -2951750.2    24196.891   -2927553.3    264630.37    1.1466867    50.956927    50.956927    101.91385 
   41000    26978    300.71161    455.15692   -2951572.8    24181.217   -2927391.6    264839.98    1.1457791    50.970378    50.970378    101.94076 
   41100    26978     300.3071   -729.97798   -2951577.4    24148.688   -2927428.7    264912.69    1.1454646    50.975042    50.975042    101.95008 
   41200    26978    298.66756    135.14953   -2951816.6    24016.848   -2927799.7     264857.9    1.1457016    50.971527    50.971527    101.94305 
   41300    26978    299.69786    2095.4418   -2951921.7    24099.697     -2927822    264507.81     1.147218    50.949059    50.949059    101.89812 
   41400    26978    302.59759   -1981.0655   -2951971.3    24332.875   -2927638.4    264341.98    1.1479377     50.93841     50.93841    101.87682 
   41500    26978    302.88576    308.83702   -2951932.8    24356.047   -2927576.7    264444.53    1.1474925    50.944996    50.944996    101.88999 
   41600    26978    298.86535   -1975.2111   -2951813.8    24032.753     -2927781    264061.37    1.1491575    50.920379    50.920379    101.84076 
   41700    26978    297.25082   -1149.8064   -2951732.2    23902.923   -2927829.3    263869.31     1.149994     50.90803     50.90803    101.81606 
   41800    26978    299.31029   -598.36661   -2951816.8    24068.532   -2927748.3    263803.72    1.1502799    50.903812    50.903812    101.80762 
   41900    26978    298.88502    1089.0007   -2951758.7    24034.335   -2927724.3    263755.85    1.1504887    50.900733    50.900733    101.80147 
   42000    26978    299.46395    1124.9167   -2951738.4    24080.888   -2927657.5    263617.27    1.1510935    50.891817    50.891817    101.78363 
   42100    26978    300.23942   -1730.8443   -2951655.7    24143.246   -2927512.5    263868.31    1.1499983    50.907966    50.907966    101.81593 
   42200    26978    303.58588   -1161.7346   -2951877.5    24412.346   -2927465.2    264236.41    1.1483963    50.931628    50.931628    101.86326 
   42300    26978    300.28413   -190.76925   -2951960.7    24146.842   -2927813.9    264029.13    1.1492979    50.918307    50.918307    101.83661 
   42400    26978    299.54168    774.14403   -2951959.3    24087.139   -2927872.2    263755.22    1.1504914    50.900693    50.900693    101.80139 
   42500    26978    299.66899    684.53047   -2951877.5    24097.376   -2927780.1    263924.08    1.1497553    50.911553    50.911553    101.82311 
   42600    26978    301.22376   -756.45179   -2951778.6    24222.401   -2927556.2    264261.55    1.1482871    50.933243    50.933243    101.86649 
   42700    26978     298.4345   -932.25953   -2951496.3    23998.107   -2927498.2    264201.62    1.1485475    50.929392    50.929392    101.85878 
   42800    26978    300.71674    552.88786   -2951789.9    24181.629   -2927608.3     264211.1    1.1485063    50.930002    50.930002       101.86 
   42900    26978    300.19005    -1304.904   -2952102.8    24139.276   -2927963.5    263872.99     1.149978    50.908267    50.908267    101.81653 
   43000    26978    299.46853   -1223.5778   -2952025.7    24081.257   -2927944.4    263809.99    1.1502526    50.904215    50.904215    101.80843 
   43100    26978    299.62422    688.31013   -2951811.5    24093.776   -2927717.7     263901.6    1.1498533    50.910107    50.910107    101.82021 
   43200    26978    302.49902   -784.73933   -2951883.9    24324.948     -2927559    264093.66     1.149017    50.922454    50.922454    101.84491 
   43300    26978    302.30131    233.22715   -2951864.4     24309.05   -2927555.3    264376.23     1.147789     50.94061     50.94061    101.88122 
   43400    26978    299.60442    1300.2043   -2951877.9    24092.184   -2927785.7    264708.29    1.1463491    50.961928    50.961928    101.92386 
   43500    26978    298.57197   -1263.6493   -2951986.2    24009.161   -2927977.1    264712.99    1.1463288    50.962229    50.962229    101.92446 
   43600    26978    298.50584    573.68619     -2951868    24003.843   -2927864.1    264538.71     1.147084    50.951043    50.951043    101.90209 
   43700    26978    297.45014   -1839.0102   -2951632.7    23918.951   -2927713.8    264260.14    1.1482932    50.933152    50.933152     101.8663 
   43800    26978    302.37269    1228.8166   -2951917.4     24314.79   -2927602.6     263893.8    1.1498873    50.909605    50.909605    101.81921 
   43900    26978    300.10333    390.51762   -2951883.6    24132.303   -2927751.3    263723.45      1.15063    50.898648    50.898648     101.7973 
   44000    26978    299.14582     168.3503   -2951871.1    24055.306   -2927815.8    263745.13    1.1505354    50.900043    50.900043    101.80009 
   44100    26978    301.64445    646.13707   -2951933.8    24256.229   -2927677.6    263988.64    1.1494742    50.915703    50.915703    101.83141 
   44200    26978    301.29274    1510.6133   -2951586.5    24227.948   -2927358.6    264188.86     1.148603    50.928572    50.928572    101.85714 
   44300    26978    302.33752    395.17881     -2951689    24311.962     -2927377    264191.14    1.1485931    50.928719    50.928719    101.85744 
   44400    26978    298.56448    7.2125705     -2951638    24008.559   -2927629.5    264441.47    1.1475058      50.9448      50.9448     101.8896 
   44500    26978     299.4147   -926.13244   -2951736.4    24076.928   -2927659.5    264471.32    1.1473763    50.946716    50.946716    101.89343 
   44600    26978    301.51729     2011.163   -2951932.4    24246.004   -2927686.4    264560.49    1.1469896    50.952441    50.952441    101.90488 
   44700    26978    297.97482    116.41779   -2951956.3    23961.142   -2927995.1    264620.76    1.1467283     50.95631     50.95631    101.91262 
   44800    26978    298.42962   -204.12534   -2952052.9    23997.714   -2928055.2    264464.13    1.1474075    50.946254    50.946254    101.89251 
   44900    26978    300.17933    177.08102   -2951970.7    24138.415   -2927832.3     264243.3    1.1483664     50.93207     50.93207    101.86414 
   45000    26978    301.64189   -557.61773   -2951973.3    24256.024   -2927717.3     264267.4    1.1482617    50.933618    50.933618    101.86724 
   45100    26978    298.09612    990.93708   -2951733.2    23970.897   -2927762.4    264258.97    1.1482983    50.933077    50.933077    101.86615 
   45200    26978    300.56165    621.39132   -2952009.8    24169.158   -2927840.7     264248.8    1.1483425    50.932423    50.932423    101.86485 
   45300    26978    298.77352    1508.1447   -2952097.3    24025.369     -2928072    264339.58    1.1479481    50.938255    50.938255    101.87651 
   45400    26978    298.12075    444.18565   -2951979.9    23972.877     -2928007    264244.63    1.1483606    50.932156    50.932156    101.86431 
   45500    26978     301.2372    465.05689   -2951898.1    24223.481   -2927674.6    264241.85    1.1483727    50.931977    50.931977    101.86395 
   45600    26978     300.1352   -300.92848   -2951765.5    24134.866   -2927630.6    263891.78    1.1498961    50.909475    50.909475    101.81895 
   45700    26978    302.12672    1211.4185   -2951925.9     24295.01   -2927630.9    263711.47    1.1506823    50.897878    50.897878    101.79576 
   45800    26978     299.5438    -1181.845   -2951662.9    24087.309   -2927575.6    263685.64     1.150795    50.896216    50.896216    101.79243 
   45900    26978    303.57817   -705.80142   -2951777.2    24411.727   -2927365.5     263902.3    1.1498502    50.910152    50.910152     101.8203 
   46000    26978    302.11313   -607.29046   -2951796.8    24293.918   -2927502.9    264479.63    1.1473402     50.94725     50.94725     101.8945 
   46100    26978    300.42442    1646.1216   -2951921.6    24158.123   -2927763.5    264818.04     1.145874     50.96897     50.96897    101.93794 
   46200    26978    297.79873    324.51147   -2951761.7    23946.982   -2927814.7    264709.21    1.1463452    50.961987    50.961987    101.92397 
   46300    26978     297.1303    1083.5571   -2951646.6    23893.232   -2927753.3    264410.99    1.1476381    50.942842    50.942842    101.88568 
   46400    26978    301.70108    44.642244   -2951793.6    24260.783   -2927532.8     264311.8    1.1480688    50.936471    50.936471    101.87294 
   46500    26978     303.2239    922.72637   -2951827.2    24383.238   -2927443.9    264226.74    1.1484383    50.931006    50.931006    101.86201 
   46600    26978    300.29608    518.57254   -2951957.2    24147.802   -2927809.4    264126.67    1.1488734    50.924576    50.924576    101.84915 
   46700    26978    299.05108    2342.8585     -2952002    24047.688   -2927954.3    263900.35    1.1498587    50.910026    50.910026    101.82005 
   46800    26978    298.50741   -1060.9669   -2951969.4     24003.97   -2927965.4    263945.33    1.1496628    50.912919    50.912919    101.82584 
   46900    26978    299.67851    1772.1963   -2951915.5    24098.141   -2927817.3    264058.63    1.1491695    50.920202    50.920202     101.8404 
   47000    26978    301.29088   -583.82118   -2951829.6    24227.798   -2927601.8    264184.05    1.1486239    50.928263    50.928263    101.85653 
   47100    26978    300.57208    198.61377   -2951775.9    24169.996   -2927605.9    263933.35    1.1497149    50.912149    50.912149     101.8243 
   47200    26978    299.76923    -2278.228   -2951787.5    24105.437   -2927682.1    263718.96    1.1506496     50.89836     50.89836    101.79672 
   47300    26978    298.39553    2940.9344   -2951957.9    23994.973   -2927962.9    263583.33    1.1512417    50.889632    50.889632    101.77926 
   47400    26978    297.02078    1327.7382   -2951905.8    23884.425   -2928021.3    263714.72    1.1506681    50.898087    50.898087    101.79617 
   47500    26978    300.55302   -165.31267     -2951960    24168.464   -2927791.5    263561.84    1.1513356     50.88825     50.88825     101.7765 
   47600    26978    302.70113   -70.650597   -2952044.8      24341.2   -2927703.6    263560.29    1.1513423     50.88815     50.88815     101.7763 
   47700    26978    301.44293     -1889.64   -2952066.2    24240.024   -2927826.2    263243.83    1.1527264    50.867774    50.867774    101.73555 
   47800    26978    301.23965    515.68042   -2952155.1    24223.678   -2927931.4    262954.05    1.1539968    50.849102    50.849102     101.6982 
   47900    26978    299.18583    706.02469   -2951999.4    24058.524   -2927940.9     262966.2    1.1539434    50.849885    50.849885    101.69977 
   48000    26978    299.47889    415.03245   -2951907.5     24082.09   -2927825.4    262925.63    1.1541215     50.84727     50.84727    101.69454 
   48100    26978    301.66055    1800.3018   -2951898.9    24257.524   -2927641.4    263148.02    1.1531461    50.861602    50.861602     101.7232 
   48200    26978    300.18924   -1700.7311   -2951808.7    24139.211   -2927669.5    263427.82    1.1519213    50.879623    50.879623    101.75925 
   48300    26978     299.4543    1134.8032   -2951987.9    24080.112   -2927907.7    263441.42    1.1518618    50.880498    50.880498      101.761 
   48400    26978    297.87298    -625.9934   -2951983.8    23952.953   -2928030.9    263545.17    1.1514084    50.887177    50.887177    101.77435 
   48500    26978    299.37497   -1115.5499   -2952020.4    24073.733   -2927946.7    263567.83    1.1513094    50.888635    50.888635    101.77727 
   48600    26978     301.4119   -1361.4187   -2952002.6     24237.53   -2927765.1    263212.84    1.1528621    50.865778    50.865778    101.73156 
   48700    26978    301.74209    -611.3857   -2951985.2    24264.081   -2927721.1    262894.77     1.154257    50.845281    50.845281    101.69056 
   48800    26978    300.31158    1771.2703   -2952046.3    24149.049   -2927897.3    262956.08    1.1539878    50.849233    50.849233    101.69847 
   48900    26978    297.74236    1179.2749   -2952087.9     23942.45   -2928145.5    262999.94    1.1537954     50.85206     50.85206    101.70412 
   49000    26978    298.80952   -2407.1171   -2952022.7    24028.263   -2927994.5    262844.54    1.1544775    50.842043    50.842043    101.68409 
   49100    26978    299.31332    134.52151   -2951894.1    24068.776   -2927825.4    262482.57    1.1560696    50.818693    50.818693    101.63739 
   49200    26978    300.66833    -679.0106   -2951908.2    24177.736   -2927730.4    262337.47     1.156709    50.809327    50.809327    101.61865 
   49300    26978    300.60206     849.0526   -2951942.8    24172.408   -2927770.4    262351.51    1.1566471    50.810234    50.810234    101.62047 
   49400    26978    298.27113   -569.49587   -2952021.9    23984.969   -2928036.9    262373.77     1.156549    50.811671    50.811671    101.62334 
   49500    26978    297.77027   -808.64232   -2952118.8    23944.694   -2928174.1    262199.09    1.1573195    50.800392    50.800392    101.60078 
   49600    26978    298.13813    357.09348   -2951990.9    23974.275   -2928016.6    262234.33     1.157164    50.802667    50.802667    101.60533 
   49700    26978    298.89437   -1976.0741   -2951930.7    24035.087   -2927895.6    262353.76    1.1566372    50.810379    50.810379    101.62076 
   49800    26978    300.97384     488.4966   -2952026.6    24202.303   -2927824.3    262626.83    1.1554346    50.828002    50.828002      101.656 
   49900    26978    300.53941    360.53332   -2951928.2    24167.369   -2927760.8    262694.22    1.1551382    50.832348    50.832348     101.6647 
   50000    26978    300.76562    281.66858   -2951875.9     24185.56   -2927690.3    262795.58    1.1546927    50.838885    50.838885    101.67777 
   50100    26978    302.63615    458.07875   -2951950.4    24335.975   -2927614.4    262678.03    1.1552094    50.831304    50.831304    101.66261 
   50200    26978    302.81362   -1749.7143   -2952016.7    24350.246   -2927666.4    262616.94    1.1554781    50.827363    50.827363    101.65473 
   50300    26978    298.92556   -209.85107   -2951914.5    24037.595   -2927876.9    262515.08    1.1559264    50.820791    50.820791    101.64158 
   50400    26978     298.2718      969.085   -2952013.6    23985.024   -2928028.6    262511.77     1.155941    50.820577    50.820577    101.64115 
   50500    26978    299.92169    144.99562   -2952213.3    24117.697   -2928095.6    262246.01    1.1571124    50.803422    50.803422    101.60684 
   50600    26978    301.16775   -3494.3445   -2952089.6    24217.897   -2927871.7    262260.03    1.1570506    50.804327    50.804327    101.60865 
   50700    26978    300.37551     1390.193   -2951816.5     24154.19   -2927662.3    262291.02    1.1569139    50.806328    50.806328    101.61266 
   50800    26978    300.02294   -658.28395   -2951890.5    24125.839   -2927764.6    262322.18    1.1567765     50.80834     50.80834    101.61668 
   50900    26978    298.37006   -416.66501   -2951942.9    23992.925     -2927950     262386.4    1.1564933    50.812486    50.812486    101.62497 
[...]
  187600    26978     298.5092    -1226.895   -2952722.4    24004.114   -2928718.3    253773.44    1.1957442    50.250308    50.250308    100.50062 
  187700    26978     299.4676    798.08704   -2952865.5    24081.181   -2928784.3    253753.92    1.1958362    50.249019    50.249019    100.49804 
  187800    26978    301.90703    -754.5586   -2953016.5    24277.344   -2928739.2    253745.96    1.1958737    50.248493    50.248493    100.49699 
  187900    26978    301.34828    211.72383   -2952996.1    24232.413   -2928763.7    253688.27    1.1961456    50.244685    50.244685    100.48937 
  188000    26978    301.01797   -129.42398   -2952912.8    24205.852   -2928706.9    253870.41    1.1952875    50.256707    50.256707    100.51341 
  188100    26978    302.17557   -1191.9624   -2952916.5    24298.938   -2928617.5    253929.71    1.1950083     50.26062     50.26062    100.52124 
  188200    26978    299.75407   -3145.8538   -2952775.2    24104.218     -2928671    253928.66    1.1950133    50.260551    50.260551     100.5211 
  188300    26978    298.51508    1114.3881   -2952719.2    24004.586   -2928714.7    253901.38    1.1951417    50.258751    50.258751     100.5175 
  188400    26978    299.13475    282.28178   -2952638.6    24054.417   -2928584.2    253962.97    1.1948518    50.262814    50.262814    100.52563 
  188500    26978    301.74655   -696.74049   -2952658.8    24264.439   -2928394.4    254125.14    1.1940893    50.273511    50.273511    100.54702 
  188600    26978    299.50276   -92.186064   -2952471.8    24084.009   -2928387.8    254124.36     1.194093    50.273459    50.273459    100.54692 
  188700    26978    298.31498    654.80782   -2952660.3    23988.496   -2928671.8    254168.04    1.1938878    50.276339    50.276339    100.55268 
  188800    26978    298.79729    186.22514     -2952838     24027.28   -2928810.7       254112    1.1941511    50.272644    50.272644    100.54529 
  188900    26978    299.79184    2012.4956   -2952813.9    24107.255   -2928706.6    253813.64    1.1955548    50.252961    50.252961    100.50592 
  189000    26978    301.05218    2924.0006   -2952750.1    24208.603   -2928541.5    253818.81    1.1955305    50.253302    50.253302     100.5066 
  189100    26978     301.2853    2643.6072   -2952744.9    24227.349   -2928517.5    253909.36    1.1951041    50.259277    50.259277    100.51855 
  189200    26978    297.54937   -3140.0082   -2952489.1    23926.931   -2928562.2    254083.95    1.1942829    50.270794    50.270794    100.54159 
  189300    26978     299.6957    2330.1527   -2952659.7    24099.524   -2928560.2    254016.54    1.1945999    50.266348    50.266348     100.5327 
  189400    26978    299.22302   -46.697638   -2952576.4    24061.514   -2928514.9    254005.62    1.1946512    50.265628    50.265628    100.53126 
  189500    26978    300.30244   -1886.3176   -2952574.3    24148.314     -2928426    254016.72     1.194599     50.26636     50.26636    100.53272 
  189600    26978    300.52419   -872.56478   -2952673.4    24166.146   -2928507.3    254310.09    1.1932209    50.285703    50.285703    100.57141 
  189700    26978    299.01103    1748.9616     -2952784    24044.467   -2928739.5    254815.34     1.190855    50.318983    50.318983    100.63797 
  189800    26978    298.67914   -742.79984   -2952802.9    24017.779   -2928785.1    254976.22    1.1901036    50.329571    50.329571    100.65914 
  189900    26978    300.83502    619.87386     -2952761    24191.141   -2928569.8    254766.56     1.191083    50.315772    50.315772    100.63154 
  190000    26978    302.13467   -1760.8763   -2952722.3     24295.65   -2928426.6    254380.61    1.1928901    50.290351    50.290351     100.5807 
  190100    26978    301.27616    1719.2852   -2952692.7    24226.614   -2928466.1    254111.55    1.1941532    50.272614    50.272614    100.54523 
  190200    26978    300.92271    1951.2534   -2952734.9    24198.192   -2928536.7    253983.68    1.1947544     50.26418     50.26418    100.52836 
  190300    26978    302.21637   -596.24697   -2952781.3    24302.219   -2928479.1    253985.91    1.1947439    50.264328    50.264328    100.52866 
  190400    26978     300.4933    180.39207   -2952688.4    24163.662   -2928524.8    253973.08    1.1948043    50.263481    50.263481    100.52696 
  190500    26978    299.19126     1115.692   -2952876.3     24058.96   -2928817.3    254019.93    1.1945839    50.266572    50.266572    100.53314 
  190600    26978    297.33271   -516.24212     -2952844    23909.508   -2928934.5    253948.21    1.1949213     50.26184     50.26184    100.52368 
  190700    26978    299.45043   -208.99819   -2952809.6    24079.801   -2928729.8    253749.19    1.1958585    50.248707    50.248707    100.49741 
  190800    26978    299.52103    2094.2062   -2952735.9    24085.478   -2928650.4    253540.75    1.1968416    50.234944    50.234944    100.46989 
  190900    26978    300.59625   -957.19209   -2952797.6     24171.94   -2928625.7    253430.46    1.1973625    50.227659    50.227659    100.45532 
  191000    26978     298.8741    257.52095   -2952553.7    24033.457   -2928520.3     253497.1    1.1970477    50.232061    50.232061    100.46412 
  191100    26978    303.66863   -37.506563   -2952656.5    24419.001   -2928237.5    253815.25    1.1955473    50.253067    50.253067    100.50613 
  191200    26978    300.70306   -479.74243   -2952485.5    24180.529     -2928305    254090.74     1.194251    50.271242    50.271242    100.54248 
  191300    26978    300.79425    681.14091   -2952649.4    24187.862   -2928461.5    254123.97    1.1940948    50.273434    50.273434    100.54687 
  191400    26978    300.78173   -2142.9393   -2952729.9    24186.855     -2928543    254180.86    1.1938276    50.277185    50.277185    100.55437 
  191500    26978    300.85641    167.72513   -2952875.7     24192.86   -2928682.8    254087.84    1.1942646    50.271051    50.271051     100.5421 
  191600    26978    296.61117    2636.9245   -2952662.5    23851.487     -2928811     254030.3    1.1945351    50.267255    50.267255    100.53451 
  191700    26978    298.53462    1978.1176   -2952648.5    24006.157   -2928642.3    254029.97    1.1945367    50.267234    50.267234    100.53447 
  191800    26978    299.49578   -167.20088   -2952426.9    24083.448   -2928343.5     254105.7    1.1941807    50.272228    50.272228    100.54446 
  191900    26978    302.45292   -418.06191     -2952745    24321.241   -2928423.7    254038.37    1.1944972    50.267788    50.267788    100.53558 
  192000    26978      298.294   -1222.6691   -2952661.4    23986.809   -2928674.6     254010.3    1.1946292    50.265936    50.265936    100.53187 
  192100    26978    299.94183    864.88641     -2952873    24119.316   -2928753.7    253869.15    1.1952934    50.256624    50.256624    100.51325 
  192200    26978    299.00954    1948.5403   -2952796.3    24044.348     -2928752    253568.26    1.1967118    50.236761    50.236761    100.47352 
  192300    26978    300.28078    876.12892   -2952624.2    24146.573   -2928477.7    253613.24    1.1964995    50.239731    50.239731    100.47946 
  192400    26978    301.98671    -2716.825   -2952643.8    24283.752   -2928360.1    253624.67    1.1964456    50.240486    50.240486    100.48097 
  192500    26978    298.88325   -925.88892   -2952523.2    24034.192     -2928489    253871.95    1.1952802    50.256809    50.256809    100.51362 
  192600    26978    300.56544    1093.5443   -2952725.3    24169.463   -2928555.8    254256.96    1.1934702    50.282202    50.282202     100.5644 
  192700    26978    300.09874    118.91233   -2952780.7    24131.934   -2928648.8    254458.51    1.1925249    50.295485    50.295485    100.59097 
  192800    26978    298.87209   -1468.8327     -2952791    24033.294   -2928757.7    254355.18    1.1930094    50.288675    50.288675    100.57735 
  192900    26978    297.07149    1867.1049   -2952633.9    23888.503   -2928745.4    254223.82    1.1936258    50.280017    50.280017    100.56003 
  193000    26978    302.25829   -1202.4929     -2952684     24305.59   -2928378.4    254149.64    1.1939742    50.275126    50.275126    100.55025 
  193100    26978    301.00227     434.9711   -2952587.8     24204.59   -2928383.2    254052.89    1.1944289    50.268746    50.268746    100.53749 
  193200    26978    299.83563   -1497.3501     -2952667    24110.777   -2928556.2    253918.54    1.1950609    50.259883    50.259883    100.51977 
  193300    26978    300.02656    75.654244   -2952855.9     24126.13   -2928729.8    253887.18    1.1952085    50.257814    50.257814    100.51563 
  193400    26978    299.70368    647.45216   -2952870.5    24100.166   -2928770.4    253879.17    1.1952462    50.257285    50.257285    100.51457 
  193500    26978     300.1073   -1484.8872   -2952833.1    24132.622   -2928700.5    254118.82     1.194119    50.273094    50.273094    100.54619 
  193600    26978     300.4265    1166.6305     -2952755     24158.29   -2928596.7    254183.89    1.1938134    50.277384    50.277384    100.55477 
  193700    26978    300.65266   -2122.2206   -2952449.3    24176.476   -2928272.9    254267.98    1.1934185    50.282928    50.282928    100.56586 
  193800    26978    301.73069   -166.22069   -2952425.7    24263.164   -2928162.6    254292.52    1.1933034    50.284545    50.284545    100.56909 
  193900    26978    299.20979     805.6088   -2952509.1     24060.45   -2928448.6    254128.29    1.1940745    50.273718    50.273718    100.54744 
  194000    26978    300.61153    677.83893   -2952764.6    24173.169   -2928591.4    253934.83    1.1949842    50.260958    50.260958    100.52192 
  194100    26978    298.83232    -687.2217   -2952641.2    24030.097   -2928611.1    253819.64    1.1955266    50.253357    50.253357    100.50671 
  194200    26978    301.36807   -23.002704   -2952810.2    24234.005   -2928576.2    253680.71    1.1961813    50.244186    50.244186    100.48837 
  194300    26978    298.61943     467.0912   -2952852.9    24012.977   -2928839.9    253408.18    1.1974677    50.226187    50.226187    100.45237 
  194400    26978    297.53386    1419.5116   -2952915.4    23925.684   -2928989.8    253499.73    1.1970353    50.232235    50.232235    100.46447 
  194500    26978    298.96154    480.56601   -2952852.1    24040.487   -2928811.6    253601.81    1.1965535    50.238976    50.238976    100.47795 
  194600    26978    300.58394    -2162.568   -2952801.6     24170.95   -2928630.7    253813.95    1.1955534    50.252981    50.252981    100.50596 
  194700    26978    301.42277   -1022.5829   -2952831.4    24238.404     -2928593    253944.48    1.1949388    50.261595    50.261595    100.52319 
  194800    26978    300.74197   -301.62575   -2952842.2    24183.658   -2928658.6       253717    1.1960102    50.246582    50.246582    100.49316 
  194900    26978    299.70372   -453.49846   -2952839.8    24100.169   -2928739.7    253477.54    1.1971401    50.230769    50.230769    100.46154 
  195000    26978    299.22079    969.03732   -2952867.9    24061.335   -2928806.6    253139.82    1.1987372    50.208451    50.208451     100.4169 
  195100    26978    301.03637    -2083.442   -2952843.9    24207.332   -2928636.6    253245.49     1.198237    50.215436    50.215436    100.43087 
  195200    26978    300.88401    3497.1886   -2952703.1     24195.08     -2928508    253010.21    1.1993513     50.19988     50.19988    100.39976 
  195300    26978    300.84321   -113.03902   -2952766.1    24191.799   -2928574.3    253078.37    1.1990283    50.204388    50.204388    100.40878 
  195400    26978     298.5517    1347.1545   -2952858.7    24007.531   -2928851.2    253312.62    1.1979195    50.219873    50.219873    100.43975 
  195500    26978    299.94875    1216.3696   -2952914.5    24119.872   -2928794.6    253282.57    1.1980616    50.217887    50.217887    100.43577 
  195600    26978    301.29962     1153.961   -2952816.9    24228.501   -2928588.4    253253.77    1.1981978    50.215984    50.215984    100.43197 
  195700    26978    298.35697    162.65593   -2952536.9    23991.872   -2928545.1    253741.32    1.1958956    50.248187    50.248187    100.49637 
  195800    26978    302.00265   -1110.6406   -2952799.1    24285.034   -2928514.1    253697.51    1.1961021    50.245295    50.245295    100.49059 
  195900    26978    299.29584    565.14124   -2952554.7     24067.37   -2928487.4    253503.87    1.1970157    50.232509    50.232509    100.46502 
  196000    26978    301.29904   -331.64242   -2952506.9    24228.454   -2928278.5    253753.21    1.1958395    50.248972    50.248972    100.49794 
  196100    26978    300.28989   -1026.4376   -2952416.3    24147.305     -2928269    253981.42    1.1947651    50.264031    50.264031    100.52806 
  196200    26978    299.45093    1284.5901   -2952688.7    24079.842   -2928608.9    254097.51    1.1942192    50.271689    50.271689    100.54338 
  196300    26978     301.1138   -3459.9459     -2952869    24213.558   -2928655.4    254142.54    1.1940076    50.274658    50.274658    100.54932 
  196400    26978    299.20129    632.31095   -2952781.4    24059.767   -2928721.7    254091.22    1.1942488    50.271273    50.271273    100.54255 
  196500    26978    297.56604   -516.65146   -2952726.3    23928.271     -2928798    253675.78    1.1962045    50.243861    50.243861    100.48772 
  196600    26978    302.61138    1057.1181   -2953044.3    24333.983   -2928710.3    253208.66    1.1984113    50.213002    50.213002      100.426 
  196700    26978    301.09856    558.34187   -2952780.9    24212.333   -2928568.5    253284.87    1.1980507    50.218039    50.218039    100.43608 
  196800    26978    304.16569    663.47078   -2952972.8    24458.971   -2928513.8    253540.84    1.1968412     50.23495     50.23495     100.4699 
  196900    26978    300.19935   -1105.0799   -2952920.1    24140.024   -2928780.1    253716.46    1.1960127    50.246546    50.246546    100.49309 
  197000    26978    299.02848    926.74233   -2952918.3    24045.871   -2928872.4    253896.65    1.1951639    50.258439    50.258439    100.51688 
  197100    26978    300.23295    1710.6696   -2952889.2    24142.726   -2928746.4     253942.9    1.1949463     50.26149     50.26149    100.52298 
  197200    26978    298.52149     1641.233   -2952628.4    24005.102   -2928623.3    254082.54    1.1942895    50.270701    50.270701     100.5414 
  197300    26978    300.72204     110.3745   -2952721.6    24182.055   -2928539.6    253991.16    1.1947192    50.264674    50.264674    100.52935 
  197400    26978    299.27741    1185.1477     -2952579    24065.888   -2928513.1    253680.81    1.1961808    50.244193    50.244193    100.48839 
  197500    26978    301.28052    553.81522     -2952585    24226.965     -2928358    253641.47    1.1963663    50.241596    50.241596    100.48319 
  197600    26978    304.42522   -1004.2905     -2952673     24479.84   -2928193.2    253645.22    1.1963487    50.241843    50.241843    100.48369 
  197700    26978    299.54404   -827.67851   -2952568.6    24087.328   -2928481.2    253596.48    1.1965786    50.238625    50.238625    100.47725 
  197800    26978    299.33491    411.45609   -2952770.8    24070.512   -2928700.3    253522.98    1.1969255    50.233771    50.233771    100.46754 
  197900    26978    298.97691    769.80597   -2952831.2    24041.724   -2928789.5    253457.57    1.1972344     50.22945     50.22945     100.4589 
  198000    26978    300.04487    18.676859   -2952758.6    24127.602     -2928631    253246.92    1.1982302    50.215531    50.215531    100.43106 
  198100    26978    302.34073   -185.23405   -2952755.2    24312.219     -2928443    253302.72    1.1979663    50.219219    50.219219    100.43844 
  198200    26978    300.42258    940.79219   -2952670.5    24157.975   -2928512.5    253435.88    1.1973368    50.228017    50.228017    100.45603 
  198300    26978    300.57724   -2552.3762   -2952788.9    24170.412   -2928618.4    253732.16    1.1959388    50.247582    50.247582    100.49516 
  198400    26978    298.40278    155.02439   -2952680.1    23995.556   -2928684.5    253715.42    1.1960177    50.246477    50.246477    100.49295 
  198500    26978    298.29994    193.38848   -2952599.2    23987.286   -2928611.9     253996.6    1.1946936    50.265033    50.265033    100.53007 
  198600    26978    300.82653   -505.68387   -2952663.4    24190.458   -2928472.9    254297.05    1.1932821    50.284844    50.284844    100.56969 
  198700    26978    301.44716   -271.45486   -2952719.6    24240.365   -2928479.2    254355.85    1.1930063    50.288719    50.288719    100.57744 
  198800    26978    300.72707   -424.84186   -2952904.7     24182.46   -2928722.2    254311.66    1.1932136    50.285807    50.285807    100.57161 
  198900    26978    298.29541    1911.8443   -2952875.2    23986.922   -2928888.2    254077.45    1.1943135    50.270365    50.270365    100.54073 
  199000    26978    299.34026    1091.1946   -2952809.8    24070.942   -2928738.9    254062.19    1.1943852    50.269359    50.269359    100.53872 
  199100    26978    300.47659    2461.4985   -2952689.8    24162.318   -2928527.5    254099.85    1.1942082    50.271843    50.271843    100.54369 
  199200    26978    300.85338   -1008.2902   -2952774.8    24192.617   -2928582.2    254182.24    1.1938211    50.277275    50.277275    100.55455 
  199300    26978    300.12963   -339.78514   -2952836.2    24134.418   -2928701.7    253864.19    1.1953167    50.256297    50.256297    100.51259 
  199400    26978    299.93263   -153.14467   -2952848.8    24118.576   -2928730.2    253553.28    1.1967825    50.235772    50.235772    100.47154 
  199500    26978     299.3843     146.3263   -2952775.4    24074.484   -2928700.9    253339.08    1.1977943    50.221622    50.221622    100.44324 
  199600    26978    300.31687   -1563.5551   -2952642.9    24149.474   -2928493.5     253805.4    1.1955936    50.252417    50.252417    100.50483 
  199700    26978    301.59916   -404.86507   -2952564.7    24252.587   -2928312.1    254460.65    1.1925149    50.295626    50.295626    100.59125 
  199800    26978    301.88588   -3042.5111   -2952635.4    24275.643   -2928359.7    254470.82    1.1924672    50.296296    50.296296    100.59259 
  199900    26978    299.90962    1354.4156   -2952722.8    24116.726     -2928606    253842.92    1.1954169    50.254893    50.254893    100.50979 
  200000    26978    298.34492    181.15921   -2952722.7    23990.903   -2928731.8    253497.37    1.1970464    50.232079    50.232079    100.46416 
Loop time of 56719.1 on 28 procs for 200000 steps with 26978 atoms

Performance: 0.076 ns/day, 315.106 hours/ns, 3.526 timesteps/s
99.8% CPU use with 28 MPI tasks x no OpenMP threads

MPI task timing breakdown:
Section |  min time  |  avg time  |  max time  |%varavg| %total
---------------------------------------------------------------
Pair    | 35672      | 40944      | 42930      |1084.2 | 72.19
Neigh   | 2554.8     | 2964.5     | 3232.1     | 439.2 |  5.23
Comm    | 119.98     | 2107.5     | 7383.5     |4782.2 |  3.72
Output  | 1.2186     | 1.2262     | 1.3998     |   3.0 |  0.00
Modify  | 10433      | 10696      | 11101      | 228.0 | 18.86
Other   |            | 5.409      |            |       |  0.01

Nlocal:    963.5 ave 1056 max 828 min
Histogram: 1 2 1 2 2 3 7 4 5 1
Nghost:    11778.3 ave 12185 max 11313 min
Histogram: 7 1 2 1 2 3 0 1 3 8
Neighs:    955128 ave 1.08075e+06 max 745439 min
Histogram: 1 2 1 4 1 2 3 4 6 4

Total # of neighbors = 26743590
Ave neighs/atom = 991.311
Neighbor list builds = 20000
Dangerous builds not checked
write_restart	restart.npt_equi
unfix npt_equi
#unfix bd
undump npt_dump


Please see the log.cite file for references relevant to this simulation

Total wall time: 15:46:03
