LAMMPS (2 Aug 2019)
# lammps code to equilibrate pmma system
# method adopted from the paper "Toughening of graphene based polymer nanocomposite via tuning chemical functionalization"
# after equilibration create crack and perform tension test
# pmma pnc system has been functionalized - 15 % of -OH functionalization
# cnt is functionalized with -OH group (hydrogen bonding)

units		real
atom_style 	charge
boundary 	p p p
read_data       pmma_pnc_funct.data
  orthogonal box = (-0.709532 -0.0364514 0.00952599) to (49.2905 49.9635 100.01)
  2 by 2 by 7 MPI processor grid
  reading atoms ...
  26905 atoms
  read_data CPU = 0.0636871 secs

pair_style	reax/c control_file lgvdw yes
pair_coeff	* * ffield.reax.lg C C H O H C C C O O C C
Reading potential file ffield.reax.lg with DATE: 2012-01-06

neighbor	4 bin
neigh_modify	every 10 delay 0 check no

thermo 100
thermo_style custom step atoms temp press pe ke etotal vol density lx ly lz      #output variables

fix std all qeq/reax 1 0.0 10.0 1e-6 reax/c
min_style	 cg							#conjugate gradient minimization
minimize	 1.0e-6 1.0e-8 10000 100000
WARNING: Using 'neigh_modify every 1 delay 0 check yes' setting during minimization (../min.cpp:168)
Neighbor list info ...
  update every 1 steps, delay 0 steps, check yes
  max neighbors/atom: 2000, page size: 100000
  master list distance cutoff = 14
  ghost atom cutoff = 14
  binsize = 7, bins = 8 8 15
  2 neighbor lists, perpetual/occasional/extra = 2 0 0
  (1) pair reax/c, perpetual
      attributes: half, newton off, ghost
      pair build: half/bin/newtoff/ghost
      stencil: half/ghost/bin/3d/newtoff
      bin: standard
  (2) fix qeq/reax, perpetual, copy from (1)
      attributes: half, newton off, ghost
      pair build: copy
      stencil: none
      bin: none
Per MPI rank memory allocation (min/avg/max) = 279.4 | 285 | 288.8 Mbytes
Step Atoms Temp Press PotEng KinEng TotEng Volume Density Lx Ly Lz 
       0    26905            0    307562.24   -2823964.2            0   -2823964.2       250000    1.2068361           50           50          100 
      64    26905            0   -704.40558   -2967484.2            0   -2967484.2       250000    1.2068361           50           50          100 
Loop time of 67.0644 on 28 procs for 64 steps with 26905 atoms

99.6% CPU use with 28 MPI tasks x no OpenMP threads

Minimization stats:
  Stopping criterion = energy tolerance
  Energy initial, next-to-last, final = 
        -2823964.23094     -2967482.20311     -2967484.18647
  Force two-norm initial, final = 39153.3 1162.55
  Force max component initial, final = 1054.64 154.231
  Final line search alpha, max atom move = 5.72522e-05 0.00883005
  Iterations, force evaluations = 64 198

MPI task timing breakdown:
Section |  min time  |  avg time  |  max time  |%varavg| %total
---------------------------------------------------------------
Pair    | 41.069     | 43.147     | 44.522     |  12.2 | 64.34
Neigh   | 0          | 0          | 0          |   0.0 |  0.00
Comm    | 0.13907    | 1.504      | 3.5353     |  64.7 |  2.24
Output  | 0          | 0          | 0          |   0.0 |  0.00
Modify  | 22.351     | 22.372     | 22.392     |   0.2 | 33.36
Other   |            | 0.04174    |            |       |  0.06

Nlocal:    960.893 ave 1007 max 916 min
Histogram: 1 3 3 5 2 4 4 3 1 2
Nghost:    11827.9 ave 11982 max 11629 min
Histogram: 3 1 2 3 3 1 4 3 5 3
Neighs:    962629 ave 1.02561e+06 max 891754 min
Histogram: 1 1 2 6 4 3 4 3 3 1

Total # of neighbors = 26953602
Ave neighs/atom = 1001.81
Neighbor list builds = 0
Dangerous builds not checked


#set of equilibrations to reduce the energy of the system

reset_timestep 0
timestep 0.25
fix npt_equi all npt temp 300.0 300.0 25.0 iso 1.0 1.0 250.0
#fix bd all reax/c/bonds 500 bonds.reaxc_eqbn
dump npt_dump all custom 500 dump.npt id type x y z
run 200000
Per MPI rank memory allocation (min/avg/max) = 279 | 284.6 | 288.4 Mbytes
Step Atoms Temp Press PotEng KinEng TotEng Volume Density Lx Ly Lz 
       0    26905            0   -704.40103   -2967484.2            0   -2967484.2       250000    1.2068361           50           50          100 
     100    26905    36.662988   -1492.3243   -2970193.1    2940.2145   -2967252.9    249647.42    1.2085405    49.976484    49.976484    99.952968 
     200    26905    60.983187   -165.54858   -2971260.5    4890.5902   -2966369.9    247882.26    1.2171465    49.858417    49.858417    99.716833 
     300    26905    75.261375    1464.4254   -2971064.7    6035.6397     -2965029    246649.87    1.2232279    49.775653    49.775653    99.551306 
     400    26905    87.728954   -438.75178   -2970418.7    7035.4861   -2963383.2    247339.07    1.2198195    49.821971    49.821971    99.643942 
     500    26905    105.99944    -639.2172     -2969912    8500.7004   -2961411.3    248177.49    1.2156985    49.878203    49.878203    99.756406 
     600    26905    125.59448    520.17814   -2969102.7    10072.139   -2959030.6    248495.14    1.2141445    49.899474    49.899474    99.798948 
     700    26905    143.22324    902.34741   -2967795.1     11485.89   -2956309.2    249178.15    1.2108165     49.94515     49.94515    99.890299 
     800    26905    165.09953    805.00413     -2966491    13240.275   -2953250.7    250385.08      1.20498    50.025659    50.025659    100.05132 
     900    26905     188.7971    1092.5747   -2965019.4    15140.718   -2949878.7    252042.41    1.1970565    50.135792    50.135792    100.27158 
    1000    26905     210.3598   -488.21148   -2963139.2    16869.954   -2946269.2    253676.51    1.1893455    50.243909    50.243909    100.48782 
    1100    26905    229.56174    280.36395   -2960947.6    18409.867   -2942537.7    254905.24    1.1836124      50.3249      50.3249     100.6498 
    1200    26905    254.38678   -57.024499     -2959214     20400.73   -2938813.2    256160.57    1.1778121    50.407376    50.407376    100.81475 
    1300    26905    278.35988    849.70492     -2957626    22323.269   -2935302.7    257350.31     1.172367    50.485295    50.485295    100.97059 
    1400    26905    290.15173    817.24768   -2955601.6    23268.925   -2932332.7    258665.44    1.1664064    50.571147    50.571147    101.14229 
    1500    26905    302.00512    894.63264   -2954259.7    24219.516   -2930040.2    260095.36    1.1599938    50.664163    50.664163    101.32833 
    1600    26905    306.86472    327.29023   -2953321.3    24609.235   -2928712.1    261354.73    1.1544042    50.745803    50.745803    101.49161 
    1700    26905    307.19826   -429.51655   -2953221.9    24635.984   -2928585.9    262781.45    1.1481366    50.837974    50.837974    101.67595 
    1800    26905    296.49118    739.71179   -2953099.6    23777.322   -2929322.3    264330.36    1.1414088    50.937663    50.937663    101.87533 
    1900    26905     296.7367    79.410077   -2953390.2    23797.012   -2929593.2    265798.17    1.1351057    51.031774    51.031774    102.06355 
    2000    26905    301.99184    1243.2657   -2953600.8    24218.451   -2929382.4       267163    1.1293069    51.118971    51.118971    102.23794 
    2100    26905    304.55775     1403.345   -2953727.6    24424.226   -2929303.4    268907.01    1.1219827    51.229963    51.229963    102.45993 
    2200    26905    298.74268    757.71303   -2953640.7    23957.883   -2929682.8     270921.5      1.11364    51.357573    51.357573    102.71515 
    2300    26905    298.51494    152.93139   -2953954.2    23939.618   -2930014.6    273090.52    1.1047949    51.494266    51.494266    102.98853 
    2400    26905    297.14343    670.56706   -2953944.9    23829.629   -2930115.3    275196.56      1.09634      51.6263      51.6263     103.2526 
    2500    26905    298.24043     1585.257   -2953785.7    23917.604   -2929868.1    277677.24    1.0865457     51.78096     51.78096    103.56192 
    2600    26905    300.34138    1523.9415   -2953445.7    24086.092   -2929359.6    280100.26    1.0771465    51.931138    51.931138    103.86228 
    2700    26905    304.57899    1517.2357   -2953236.6    24425.929   -2928810.7    282709.48    1.0672051    52.091891    52.091891    104.18378 
    2800    26905    300.52041    1551.4359   -2952764.4    24100.449     -2928664    285162.22    1.0580259    52.242105    52.242105    104.48421 
    2900    26905     299.3434    1370.7094   -2952665.5    24006.057   -2928659.4    287540.61    1.0492744    52.386944    52.386944    104.77389 
    3000    26905    298.25233    1499.9411   -2952513.8    23918.559   -2928595.2    290113.56    1.0399687    52.542735    52.542735    105.08547 
    3100    26905    296.29474    2213.9088   -2952017.2    23761.568   -2928255.6    292585.86    1.0311811    52.691567    52.691567    105.38313 
    3200    26905    301.28583    957.94857     -2951678    24161.832   -2927516.2    295181.49    1.0221136    52.846923    52.846923    105.69385 
    3300    26905    302.94621    348.71332   -2951251.5    24294.987   -2926956.5     297614.8    1.0137568    52.991739    52.991739    105.98348 
    3400    26905    303.48205    529.72597   -2951157.3     24337.96   -2926819.3    299998.49    1.0057018     53.13284     53.13284    106.26568 
    3500    26905    297.60016    1050.9585   -2950945.8    23866.257   -2927079.5    301881.28   0.99942936    53.243761    53.243761    106.48752 
    3600    26905    298.42339   -64.516201     -2951092    23932.277   -2927159.7    303595.66   0.99378566    53.344361    53.344361    106.68872 
    3700    26905    299.10605    168.85976   -2950911.6    23987.023   -2926924.5    305154.27   0.98870977    53.435493    53.435493    106.87099 
    3800    26905    302.63499    2069.4001   -2950988.4    24270.029   -2926718.4    306283.55   0.98506437    53.501328    53.501328    107.00266 
    3900    26905    302.79564    -17.86255     -2951143    24282.913   -2926860.1    307104.03   0.98243262    53.549058    53.549058    107.09812 
    4000    26905    300.01967   -356.11966     -2951348    24060.291   -2927287.7    307421.41   0.98141836    53.567499    53.567499      107.135 
    4100    26905    293.75979    441.32676     -2951238    23558.276   -2927679.7    307471.05   0.98125992    53.570382    53.570382    107.14076 
    4200    26905    301.11355   -837.89274   -2951607.3    24148.016   -2927459.3    307811.88    0.9801734    53.590169    53.590169    107.18034 
    4300    26905    303.25554    -842.8677   -2951585.8    24319.795     -2927266     307735.6   0.98041635    53.585742    53.585742    107.17148 
    4400    26905    299.11958   -710.98171   -2951346.7    23988.108   -2927358.6    307046.33   0.98261723    53.545705    53.545705    107.09141 
    4500    26905    298.99394   -485.61446   -2951339.7    23978.033   -2927361.7    306118.26   0.98559627    53.491702    53.491702     106.9834 
    4600    26905    299.54354   -430.71732   -2951258.7    24022.108   -2927236.6    305363.22   0.98803326    53.447686    53.447686    106.89537 
    4700    26905    303.59568    1056.3257   -2951383.9    24347.073   -2927036.9    304435.43   0.99104436    53.393501    53.393501      106.787 
    4800    26905    301.75013   -1119.6072   -2951449.6    24199.067   -2927250.5     303244.7    0.9949358    53.323798    53.323798     106.6476 
    4900    26905    295.13647   -1611.8178   -2951302.5     23668.68   -2927633.9    301764.58   0.99981585      53.2369      53.2369     106.4738 
    5000    26905    301.06282    265.18105   -2951670.4    24143.948   -2927526.4    300279.43    1.0047608     53.14942     53.14942    106.29884 
    5100    26905    300.79536   -107.30285   -2951517.2    24122.498   -2927394.7    298953.48    1.0092173    53.071074    53.071074    106.14215 
    5200    26905    300.26272    17.294726   -2951558.8    24079.783     -2927479    297826.38    1.0130366    53.004294    53.004294    106.00859 
    5300    26905    299.07716     513.6991   -2951532.4    23984.706   -2927547.7    296749.69    1.0167121    52.940344    52.940344    105.88069 
    5400    26905    301.84875    837.50235   -2951730.3    24206.976   -2927523.3     295928.7    1.0195328    52.891478    52.891478    105.78296 
    5500    26905    300.38112    554.37262   -2951701.7    24089.278   -2927612.4    295664.99    1.0204421    52.875761    52.875761    105.75152 
    5600    26905    297.74749    -1756.503     -2951577    23878.072     -2927699    295354.16    1.0215161    52.857226    52.857226    105.71445 
    5700    26905    301.47409   -947.61502     -2951775     24176.93     -2927598    295146.02    1.0222364    52.844806    52.844806    105.68961 
    5800    26905    300.12183    275.31355   -2951670.9    24068.484   -2927602.4    295216.18    1.0219935    52.848994    52.848994    105.69799 
    5900    26905    300.03759   -778.55755   -2951855.5    24061.729   -2927793.7    295879.64    1.0197018    52.888554    52.888554    105.77711 
    6000    26905    296.45491   -766.77504   -2951704.5    23774.413   -2927930.1    296696.67    1.0168938    52.937191    52.937191    105.87438 
    6100    26905    300.93348    515.45972     -2951760    24133.575   -2927626.4    297329.78    1.0147285    52.974818    52.974818    105.94964 
    6200    26905    301.85474     -704.139   -2951688.8    24207.456   -2927481.3     298209.9    1.0117337    53.027036    53.027036    106.05407 
    6300    26905    298.79991   -239.35892     -2951707    23962.472   -2927744.5    298818.65    1.0096726    53.063094    53.063094    106.12619 
    6400    26905    298.29589    554.53868   -2951781.5    23922.052   -2927859.5    299358.38    1.0078523    53.095022    53.095022    106.19004 
    6500    26905    298.93859     639.9244   -2951774.1    23973.594   -2927800.5     299832.4    1.0062589    53.123032    53.123032    106.24606 
    6600    26905    298.74187   -765.91249   -2951747.4    23957.817   -2927789.6    300297.38    1.0047008    53.150479    53.150479    106.30096 
    6700    26905    297.49602    273.19555   -2951605.5    23857.905   -2927747.6    300560.75    1.0038204    53.166013    53.166013    106.33203 
    6800    26905    299.73052     -805.952   -2951476.3    24037.103   -2927439.2    301144.69    1.0018739    53.200421    53.200421    106.40084 
    6900    26905    303.79997   -774.13266   -2951654.2    24363.455   -2927290.8    301588.52    1.0003995    53.226544    53.226544    106.45309 
    7000    26905     298.8209    1342.3313   -2951466.7    23964.155   -2927502.5    302111.09   0.99866912    53.257269    53.257269    106.51454 
    7100    26905    298.43909   -252.96255   -2951478.9    23933.536   -2927545.4    302502.83   0.99737583    53.280278    53.280278    106.56056 
    7200    26905    301.59332   -1104.1685   -2951503.8    24186.492   -2927317.3    302696.98   0.99673613    53.291674    53.291674    106.58335 
    7300    26905     300.0353   -248.60285   -2951358.2    24061.545   -2927296.7    302795.91   0.99641047    53.297479    53.297479    106.59496 
    7400    26905    299.36131   -372.80199   -2951416.2    24007.494   -2927408.7    302859.57   0.99620101    53.301214    53.301214    106.60243 
    7500    26905    300.94211    137.70391   -2951592.4    24134.267   -2927458.1    302699.75   0.99672698    53.291837    53.291837    106.58367 
    7600    26905    300.71685    601.68353   -2951749.9    24116.202   -2927633.7    302198.16   0.99838137    53.262385    53.262385    106.52477 
    7700    26905    298.96343   -79.408503   -2951913.3    23975.586   -2927937.7    301954.75   0.99918618     53.24808     53.24808    106.49616 
    7800    26905    294.88226    159.00041   -2951647.3    23648.294     -2927999    301814.32    0.9996511    53.239824    53.239824    106.47965 
    7900    26905    301.65003    1273.1253   -2951665.5     24191.04   -2927474.4     301604.9    1.0003452    53.227508    53.227508    106.45502 
    8000    26905    305.18152   -1230.0793   -2951620.3     24474.25     -2927146    301118.04    1.0019626    53.198852    53.198852     106.3977 
    8100    26905    302.06807    -631.3025   -2951795.1    24224.564   -2927570.5    300260.18    1.0048253    53.148284    53.148284    106.29657 
    8200    26905    298.78744    284.47046     -2952094    23961.472   -2928132.5    299065.97    1.0088377    53.077729    53.077729    106.15546 
    8300    26905     297.5723    76.301217   -2952102.9    23864.023   -2928238.9    298574.95    1.0104967    53.048665    53.048665    106.09733 
    8400    26905    300.21245   -668.76473   -2951919.8    24075.751     -2927844    297855.05     1.012939    53.005995    53.005995    106.01199 
    8500    26905    304.00566   -1018.1037   -2951796.8    24379.951   -2927416.9    297004.96    1.0158383     52.95552     52.95552    105.91104 
    8600    26905    303.84674   -1093.6023   -2951785.8    24367.207   -2927418.6     296216.5    1.0185422    52.908618    52.908618    105.81724 
    8700    26905    299.93859   -996.09511     -2951903    24053.789   -2927849.2     295505.7    1.0209922    52.866264    52.866264    105.73253 
    8800    26905    296.18118    1333.2289   -2951958.7    23752.461   -2928206.2    294907.47    1.0230633    52.830565    52.830565    105.66113 
    8900    26905    298.89562   -333.28012   -2951972.3    23970.148   -2928002.1     294427.7    1.0247304    52.801901    52.801901     105.6038 
    9000    26905    301.43907   -491.54171   -2951784.4    24174.121   -2927610.3    294589.89    1.0241662    52.811595    52.811595    105.62319 
    9100    26905    302.30277   -155.44718   -2951782.2    24243.387   -2927538.8    294548.19    1.0243112    52.809103    52.809103    105.61821 
    9200    26905    300.74681   -1620.2492   -2951910.5    24118.605   -2927791.9    294422.84    1.0247473    52.801611    52.801611    105.60322 
    9300    26905    296.97763   -1685.9995   -2951978.5    23816.333   -2928162.1    294299.26    1.0251776    52.794222    52.794222    105.58844 
    9400    26905    299.72988    546.20746   -2952318.3    24037.052   -2928281.3    294340.17    1.0250351    52.796668    52.796668    105.59334 
    9500    26905    299.62208    1377.6458     -2952182    24028.406   -2928153.6    294454.46    1.0246373    52.803501    52.803501      105.607 
    9600    26905    300.60777    2366.1832     -2952060    24107.455   -2927952.5    294713.63    1.0237362    52.818988    52.818988    105.63798 
    9700    26905    302.09299   -1466.1602     -2952082    24226.563   -2927855.4    294858.11    1.0232346    52.827618    52.827618    105.65524 
    9800    26905    299.66911    -538.0286   -2952089.1    24032.178   -2928056.9    294893.12    1.0231131    52.829708    52.829708    105.65942 
    9900    26905    297.05377    269.49172   -2952042.7    23822.439   -2928220.2     294679.7    1.0238541    52.816961    52.816961    105.63392 
   10000    26905    299.52981    460.04263   -2952108.1    24021.007   -2928087.1    294188.79    1.0255626    52.787615    52.787615    105.57523 
   10100    26905    302.96597    1492.4418   -2952072.6    24296.572   -2927776.1    293972.78    1.0263162    52.774692    52.774692    105.54938 
   10200    26905    302.74492    192.63523   -2951989.2    24278.845   -2927710.4    294013.95    1.0261725    52.777155    52.777155    105.55431 
   10300    26905    298.44416   -15.387283   -2951908.3    23933.942   -2927974.4    293853.02    1.0267344    52.767524    52.767524    105.53505 
   10400    26905    297.56604    1710.7676   -2952097.6    23863.521     -2928234    293814.63    1.0268686    52.765227    52.765227    105.53045 
   10500    26905    298.21685   -832.23026   -2952138.8    23915.713   -2928223.1    294025.78    1.0261312    52.777863    52.777863    105.55573 
   10600    26905     302.1577    1131.6486   -2952173.1    24231.752   -2927941.4    293914.22    1.0265207    52.771187    52.771187    105.54237 
   10700    26905    301.25238    1276.3772   -2952140.8     24159.15   -2927981.6    293690.37    1.0273031    52.757787    52.757787    105.51557 
   10800    26905    297.65023    1380.5618   -2952131.7    23870.272   -2928261.4    293520.88    1.0278963    52.747636    52.747636    105.49527 
   10900    26905    299.11597   -1733.9187   -2952347.4    23987.819   -2928359.6    293349.79    1.0284958    52.737385    52.737385    105.47477 
   11000    26905    300.93177    -2229.711     -2952499    24133.438   -2928365.6    293061.66    1.0295069    52.720114    52.720114    105.44023 
   11100    26905    297.24992   -1488.7512   -2952138.8     23838.17   -2928300.6    292728.36    1.0306791     52.70012     52.70012    105.40024 
   11200    26905    303.72918    1614.2928   -2952369.1    24357.779   -2928011.3    292191.09    1.0325743    52.667858    52.667858    105.33572 
   11300    26905     301.8899   -389.53666   -2952152.6    24210.276   -2927942.3    291507.24    1.0349967    52.626738    52.626738    105.25348 
   11400    26905    300.00166    233.94365   -2952142.6    24058.847   -2928083.8    291059.97    1.0365871    52.599808    52.599808    105.19962 
   11500    26905    300.37515    349.90077   -2952253.9      24088.8   -2928165.1    290854.93    1.0373179    52.587454    52.587454    105.17491 
   11600    26905    300.68292    321.22531   -2952249.5    24113.481     -2928136    290520.23    1.0385129    52.567275    52.567275    105.13455 
   11700    26905    300.19477   -1926.7072   -2952111.3    24074.333   -2928036.9    290067.83    1.0401326    52.539974    52.539974    105.07995 
   11800    26905    302.74424    417.69809   -2952169.6    24278.791   -2927890.8    289488.84    1.0422129    52.504994    52.504994    105.00999 
   11900    26905    300.27974    282.71997   -2952151.6    24081.148   -2928070.4    289203.95    1.0432396    52.487764    52.487764    104.97553 
   12000    26905    300.66906   -564.99574   -2952516.2     24112.37   -2928403.9    289090.37    1.0436495    52.480892    52.480892    104.96178 
   12100    26905    297.01405   -611.99182   -2952588.2    23819.254   -2928768.9    288816.26      1.04464      52.4643      52.4643     104.9286 
   12200    26905    297.14107   -988.09979   -2952483.5     23829.44   -2928654.1    288476.52    1.0458703     52.44372     52.44372    104.88744 
   12300    26905    301.76778   -766.34369   -2952480.9    24200.482   -2928280.4    288357.96    1.0463003    52.436535    52.436535    104.87307 
   12400    26905    302.67165    255.31641   -2952506.2    24272.969   -2928233.2    288144.54    1.0470752    52.423595    52.423595    104.84719 
   12500    26905    296.97488    208.98713   -2952394.7    23816.112   -2928578.5    287956.63    1.0477585    52.412196    52.412196    104.82439 
   12600    26905    299.16994    1353.8575   -2952685.8    23992.147   -2928693.6    287814.34    1.0482765    52.403562    52.403562    104.80712 
   12700    26905    299.97821    2145.7064   -2952604.4    24056.966   -2928547.4    287872.69    1.0480641    52.407103    52.407103    104.81421 
   12800    26905    303.46191    -1431.253   -2952697.9    24336.345   -2928361.6    287970.67    1.0477074    52.413048    52.413048     104.8261 
   12900    26905    300.42143   -1322.9713     -2952473    24092.511   -2928380.5    287797.33    1.0483385     52.40253     52.40253    104.80506 
   13000    26905    299.69789   -25.321522   -2952615.8    24034.486   -2928581.3    287445.74    1.0496207    52.381182    52.381182    104.76236 
   13100    26905    300.87779   -881.60167   -2952907.5    24129.109   -2928778.4    287053.78     1.051054    52.357362    52.357362    104.71472 
   13200    26905    297.85207    2141.0876   -2952848.6    23886.459   -2928962.2    286674.18    1.0524457    52.334273    52.334273    104.66855 
   13300    26905    298.97571   -816.88777   -2952765.4     23976.57   -2928788.9    286524.22    1.0529965    52.325146    52.325146    104.65029 
   13400    26905    301.92548    820.07769   -2952527.4    24213.129   -2928314.3    286295.77    1.0538368    52.311236    52.311236    104.62247 
   13500    26905    305.60444   -336.48879   -2952547.3    24508.166   -2928039.1    285818.13    1.0555979    52.282128    52.282128    104.56426 
   13600    26905    300.00323    998.41588   -2952481.4    24058.973   -2928422.4    285362.48    1.0572834    52.254331    52.254331    104.50866 
   13700    26905     297.8312   -743.29778   -2952728.3    23884.785   -2928843.5    285344.15    1.0573513    52.253212    52.253212    104.50642 
   13800    26905    300.10356   -1260.2405   -2952994.3    24067.019   -2928927.2    285435.11    1.0570144    52.258764    52.258764    104.51753 
   13900    26905    299.94504   -2707.4892   -2952931.3    24054.307   -2928876.9    285298.05    1.0575222    52.250398    52.250398     104.5008 
   14000    26905    298.00225   -1168.2397   -2952656.1    23898.503   -2928757.6    285226.84    1.0577862    52.246051    52.246051     104.4921 
   14100    26905    302.58022    282.88267   -2952698.4    24265.636   -2928432.8     285279.9    1.0575895     52.24929     52.24929    104.49858 
   14200    26905    302.37022    455.99378   -2952580.2    24248.796   -2928331.4    285035.29    1.0584971    52.234352    52.234352     104.4687 
   14300    26905     300.2516   -634.08986   -2952707.2    24078.891   -2928628.3    284795.65    1.0593877    52.219709    52.219709    104.43942 
   14400    26905    297.98713    989.17223   -2952862.1    23897.291   -2928964.8    284370.12     1.060973    52.193688    52.193688    104.38738 
   14500    26905    300.04248    1126.6368   -2953112.3    24062.121   -2929050.2    283809.52    1.0630687    52.159368    52.159368    104.31874 
   14600    26905    298.71872    926.63862   -2952976.2    23955.961   -2929020.2     283102.7    1.0657228    52.116032    52.116032    104.23206 
   14700    26905    301.23514    1496.9271   -2953037.1    24157.767   -2928879.3    282647.44    1.0674394     52.08808     52.08808    104.17616 
   14800    26905    300.69116    495.65626   -2952894.7    24114.142   -2928780.5     282180.6    1.0692054    52.059387    52.059387    104.11877 
   14900    26905    300.72897    1759.7913   -2952832.8    24117.174   -2928715.6    281873.33    1.0703709    52.040484    52.040484    104.08097 
   15000    26905    300.95374    514.55691   -2952866.7      24135.2   -2928731.5     281449.5    1.0719828    52.014388    52.014388    104.02878 
   15100    26905    302.37083     184.8356     -2953198    24248.845   -2928949.1    280813.35    1.0744112     51.97517     51.97517    103.95034 
   15200    26905    297.01261   -1074.0641   -2953183.1    23819.139     -2929364    280529.98    1.0754965    51.957681    51.957681    103.91536 
   15300    26905     294.3783    -164.3672   -2953094.8    23607.878   -2929486.9     280242.8    1.0765986    51.939946    51.939946    103.87989 
   15400    26905    298.81269     -408.688   -2953123.5    23963.497     -2929160    280109.93    1.0771093    51.931736    51.931736    103.86347 
   15500    26905    299.61809    1108.3106   -2952711.4    24028.086   -2928683.4     280230.8    1.0766447    51.939204    51.939204    103.87841 
   15600    26905    301.70939   -46.529208     -2952470      24195.8   -2928274.2    279980.38    1.0776077    51.923728    51.923728    103.84746 
   15700    26905    303.27178    1123.3224     -2952702    24321.097   -2928380.9    279761.81    1.0784496    51.910213    51.910213    103.82043 
   15800    26905    298.12109    2052.8251   -2952785.5    23908.033   -2928877.5    279524.71    1.0793644    51.895544    51.895544    103.79109 
   15900    26905    296.55376    345.65869   -2952958.8    23782.341   -2929176.5    279868.47    1.0780386    51.916809    51.916809    103.83362 
   16000    26905    299.33752   -91.798322   -2953092.4    24005.586   -2929086.8    280121.59    1.0770645    51.932456    51.932456    103.86491 
   16100    26905    301.48016    939.66951   -2953118.8    24177.417   -2928941.4    279695.49    1.0787053    51.906111    51.906111    103.81222 
   16200    26905    303.12467    1288.4855   -2953175.9    24309.299   -2928866.6    279231.29    1.0804986    51.877379    51.877379    103.75476 
   16300    26905    298.94427    240.59154   -2952990.3    23974.049   -2929016.3     279231.4    1.0804982    51.877386    51.877386    103.75477 
   16400    26905    299.28106    1773.4713   -2953051.1    24001.058     -2929050    279298.05    1.0802403    51.881513    51.881513    103.76303 
   16500    26905    299.95891   -138.84501   -2953027.7    24055.419   -2928972.3    279141.69    1.0808454     51.87183     51.87183    103.74366 
   16600    26905    301.43676   -252.74511     -2953134    24173.936     -2928960    279078.24    1.0810911      51.8679      51.8679     103.7358 
   16700    26905    299.66911    164.09946   -2953217.2    24032.178     -2929185    279145.18    1.0808319    51.872046    51.872046    103.74409 
   16800    26905    297.87995    99.220609   -2953252.8    23888.695   -2929364.1    279056.42    1.0811757    51.866547    51.866547    103.73309 
   16900    26905    299.43259   -1991.7611   -2953166.5    24013.211   -2929153.3    279146.38    1.0808272    51.872121    51.872121    103.74424 
   17000    26905    302.04551     376.2512   -2952997.1    24222.755   -2928774.4    279106.04    1.0809835    51.869621    51.869621    103.73924 
   17100    26905    302.36985    19.479858   -2952931.7    24248.766     -2928683    279104.84    1.0809881    51.869547    51.869547    103.73909 
   17200    26905    302.06077    457.98904     -2953250    24223.979     -2929026     278905.6    1.0817603    51.857202    51.857202     103.7144 
   17300    26905    296.55583   -271.98888     -2953222    23782.507   -2929439.5    278752.32    1.0823552      51.8477      51.8477     103.6954 
   17400    26905    297.72074    900.46998   -2953341.6    23875.927   -2929465.7     278587.2    1.0829967    51.837461    51.837461    103.67492 
   17500    26905    299.56116   -1615.3743   -2953195.7    24023.521   -2929172.2    278629.79    1.0828311    51.840102    51.840102     103.6802 
   17600    26905    302.08067    1183.6913     -2952993    24225.575   -2928767.4    278676.95    1.0826479    51.843027    51.843027    103.68605 
   17700    26905    302.62305    1200.3655   -2953077.4    24269.072   -2928808.3    278633.33    1.0828174    51.840322    51.840322    103.68064 
   17800    26905    298.57092   -263.93162   -2953192.5    23944.108   -2929248.4    278315.11    1.0840555    51.820579    51.820579    103.64116 
   17900    26905    298.73183    924.16602   -2953494.6    23957.013   -2929537.5    277990.67    1.0853207    51.800435    51.800435    103.60087 
   18000    26905    298.85401    1338.2865   -2953516.9     23966.81   -2929550.1    277316.78     1.087958    51.758544    51.758544    103.51709 
   18100    26905     300.5767   -11.739123   -2953433.8    24104.963   -2929328.8     277115.8    1.0887471    51.746037    51.746037    103.49207 
   18200    26905    301.75636    -755.4496   -2953362.5    24199.567     -2929163    277278.08    1.0881099    51.756136    51.756136    103.51227 
   18300    26905    300.21701   -775.84929   -2953327.2    24076.118   -2929251.1    277437.16    1.0874859    51.766032    51.766032    103.53206 
   18400    26905    297.69303    275.33637   -2953233.6    23873.705   -2929359.9    277606.53    1.0868225    51.776564    51.776564    103.55313 
   18500    26905    299.51042   -1498.4449   -2953272.6    24019.452   -2929253.1    277487.06    1.0872904    51.769135    51.769135    103.53827 
   18600    26905    300.51211    781.55825   -2953182.4    24099.783   -2929082.6    277135.42      1.08867    51.747259    51.747259    103.49452 
   18700    26905    300.95749   -1555.7503   -2953162.3    24135.501   -2929026.8    276638.75    1.0906245    51.716327    51.716327    103.43265 
   18800    26905    299.53244    172.74058   -2953236.4    24021.218   -2929215.2    276238.97     1.092203    51.691402    51.691402     103.3828 
   18900    26905    297.75154    362.67171   -2953351.6    23878.397   -2929473.2    275944.54    1.0933683    51.673031    51.673031    103.34606 
   19000    26905    299.23385    362.39139   -2953507.1    23997.272   -2929509.8    275793.19    1.0939683    51.663582    51.663582    103.32716 
   19100    26905    299.62232   -964.84961   -2953547.9    24028.426   -2929519.5     275513.5    1.0950789    51.646111    51.646111    103.29222 
   19200    26905    300.02097   -541.79543   -2953510.6    24060.396   -2929450.2    275176.27    1.0964209    51.625031    51.625031    103.25006 
   19300    26905    302.22703   -30.101971   -2953617.3    24237.312     -2929380    274969.59     1.097245    51.612103    51.612103    103.22421 
   19400    26905    300.34976   -826.23231   -2953527.5    24086.763   -2929440.7    275354.38    1.0957117    51.636167    51.636167    103.27233 
   19500    26905    300.13065    576.73458   -2953586.2    24069.192     -2929517    275473.73     1.095237    51.643626    51.643626    103.28725 
   19600    26905    298.95067   -373.32522   -2953526.3    23974.562   -2929551.7    275556.77    1.0949069    51.648815    51.648815    103.29763 
   19700    26905    301.39147    1630.2211   -2953583.3    24170.304     -2929413     275379.3    1.0956125    51.637725    51.637725    103.27545 
   19800    26905    302.05048    492.76926   -2953588.2    24223.154     -2929365    274961.93    1.0972756    51.611624    51.611624    103.22325 
   19900    26905    299.25973   -2175.0976     -2953482    23999.348   -2929482.6    274690.71     1.098359    51.594649    51.594649     103.1893 
   20000    26905    297.89999    654.72834   -2953410.4    23890.302   -2929520.1    274149.36    1.1005279    51.560733    51.560733    103.12147 
   20100    26905    302.41298    -1142.291   -2953679.4    24252.225   -2929427.2    273807.63    1.1019014      51.5393      51.5393     103.0786 
   20200    26905    298.68862    1515.6848   -2953519.3    23953.547   -2929565.8    273652.14    1.1025275    51.529542    51.529542    103.05908 
   20300    26905    298.15633    500.78971   -2953614.5    23910.859   -2929703.7    273740.09    1.1021733    51.535062    51.535062    103.07012 
   20400    26905    298.46307    1841.5807   -2953630.5    23935.459     -2929695    273644.31    1.1025591    51.529051    51.529051     103.0581 
   20500    26905    299.97509   -2220.1889     -2953533    24056.717   -2929476.3    273493.36    1.1031676    51.519574    51.519574    103.03915 
   20600    26905    301.72913    1153.0429   -2953418.9    24197.383   -2929221.6    273219.68    1.1042726    51.502384    51.502384    103.00477 
   20700    26905    304.37141   -1987.4581   -2953635.5    24409.282   -2929226.2     273177.5    1.1044431    51.499733    51.499733    102.99947 
   20800    26905     297.3007   -2158.3012   -2953458.2    23842.242   -2929615.9    272994.22    1.1051846    51.488213    51.488213    102.97643 
   20900    26905    300.10732   -1111.3799   -2954009.6    24067.321   -2929942.3     272612.7    1.1067313    51.464216    51.464216    102.92843 
   21000    26905    298.62932    1827.6544   -2954063.1    23948.791   -2930114.3    272869.29    1.1056906    51.480357    51.480357    102.96071 
   21100    26905    298.41773   -1292.9252   -2953805.3    23931.823   -2929873.5    273204.15    1.1043354    51.501408    51.501408    103.00282 
   21200    26905    302.06276    -1690.706   -2953614.2    24224.139     -2929390    273174.89    1.1044537    51.499569    51.499569    102.99914 
   21300    26905    301.69156   -824.56788   -2953341.6     24194.37   -2929147.2    273195.12    1.1043719     51.50084     51.50084    103.00168 
   21400    26905    302.09117    408.03471     -2953555    24226.417   -2929328.6    273471.72    1.1032549    51.518215    51.518215    103.03643 
   21500    26905    296.76402   -192.11111   -2953577.3    23799.203   -2929778.1    273250.17    1.1041494    51.504299    51.504299     103.0086 
   21600    26905     299.6559   -2167.3322   -2953892.4    24031.119   -2929861.3    272849.62    1.1057703    51.479121    51.479121    102.95824 
   21700    26905    300.81182    440.86792   -2953826.3    24123.819   -2929702.4    272885.76    1.1056239    51.481393    51.481393    102.96279 
   21800    26905    302.83915   -408.47977   -2953749.7    24286.402   -2929463.3    273003.21    1.1051482    51.488778    51.488778    102.97756 
   21900    26905    301.03947   -1977.5475     -2953560    24142.075   -2929417.9    273259.13    1.1041132    51.504862    51.504862    103.00972 
   22000    26905    301.36869   -1381.0234   -2953747.3    24168.477   -2929578.8    273287.16        1.104    51.506623    51.506623    103.01325 
   22100    26905    298.85443   -579.46057   -2953814.3    23966.844   -2929847.4     273117.3    1.1046866     51.49595     51.49595     102.9919 
   22200    26905    298.23696    789.00726     -2953931    23917.326   -2930013.7    272966.75    1.1052958    51.486486    51.486486    102.97297 
   22300    26905    300.21131    1033.9758   -2953871.9     24075.66   -2929796.2    273000.29    1.1051601    51.488595    51.488595    102.97719 
   22400    26905    301.33715   -1168.3817   -2953645.2    24165.948   -2929479.2    273003.91    1.1051454    51.488822    51.488822    102.97764 
   22500    26905    302.53676   -364.24995   -2953622.2    24262.151   -2929360.1    272701.27    1.1063719    51.469789    51.469789    102.93958 
   22600    26905    299.19737    59.795316   -2953507.9    23994.347   -2929513.5     272846.7    1.1057821    51.478937    51.478937    102.95787 
   22700    26905    298.60731    680.87086   -2953703.2    23947.026   -2929756.1     272726.1    1.1062711    51.471351    51.471351     102.9427 
   22800    26905    298.91581   -195.68248   -2953819.2    23971.767   -2929847.4    272669.43    1.1065011    51.467786    51.467786    102.93557 
   22900    26905    298.38131    1992.4888   -2953706.5    23928.902   -2929777.6    272558.68    1.1069507    51.460816    51.460816    102.92163 
   23000    26905    298.29346   -299.54895   -2953557.6    23921.857   -2929635.7    272310.45    1.1079597     51.44519     51.44519    102.89038 
   23100    26905    303.37568    2360.5976   -2953918.4    24329.429   -2929588.9       271978     1.109314    51.424245    51.424245    102.84849 
   23200    26905    300.06162     1983.087   -2953878.2    24063.656   -2929814.5    271552.02    1.1110542    51.397384    51.397384    102.79477 
   23300    26905    298.83185   -1790.7933   -2953963.3    23965.034   -2929998.2    271209.83     1.112456    51.375786    51.375786    102.75157 
   23400    26905    297.92701   -44.724078     -2953954    23892.469   -2930061.5    270904.58    1.1137095    51.356504    51.356504    102.71301 
   23500    26905    300.48816    648.53156   -2953998.3    24097.862   -2929900.4    270823.58    1.1140426    51.351385    51.351385    102.70277 
   23600    26905    302.29115    648.28561     -2953945    24242.455   -2929702.6    270508.62    1.1153397     51.33147     51.33147    102.66294 
   23700    26905     300.7428    88.164174   -2953741.7    24118.283   -2929623.5    270281.63    1.1162764    51.317109    51.317109    102.63422 
   23800    26905    301.69233   -2294.2644     -2953915    24194.432   -2929720.6     270124.8    1.1169245    51.307181    51.307181    102.61436 
   23900    26905    299.64045   -235.74785   -2953902.8     24029.88   -2929872.9    269900.03    1.1178547    51.292946    51.292946    102.58589 
   24000    26905     300.2936   -300.57601     -2953987     24082.26   -2929904.7    269899.74    1.1178559    51.292928    51.292928    102.58586 
   24100    26905    300.51597   -328.73987   -2953970.3    24100.093   -2929870.2    269583.98    1.1191652    51.272917    51.272917    102.54583 
   24200    26905    301.22896     2179.705   -2953981.8    24157.271   -2929824.5     268883.5    1.1220808     51.22847     51.22847    102.45694 
   24300    26905    299.05749    1152.9232   -2953717.5    23983.129   -2929734.3    268617.92    1.1231902    51.211598    51.211598     102.4232 
   24400    26905    301.13575    164.57698   -2953772.3    24149.796   -2929622.5    268652.34    1.1230463    51.213786    51.213786    102.42757 
   24500    26905    299.49036    -1399.452   -2953730.4    24017.843   -2929712.6    268491.91    1.1237173    51.203589    51.203589    102.40718 
   24600    26905    299.74475   -1896.7275   -2954026.7    24038.244   -2929988.5    268485.84    1.1237428    51.203203    51.203203    102.40641 
   24700    26905    297.97315    1115.0065   -2954101.1     23896.17     -2930205    268776.03    1.1225295    51.221644    51.221644    102.44329 
   24800    26905    298.17874    247.23924   -2954043.8    23912.656   -2930131.2     268495.2    1.1237036    51.203798    51.203798     102.4076 
   24900    26905    300.81125   -2782.5157   -2954030.3    24123.773   -2929906.5    268563.41    1.1234182    51.208134    51.208134    102.41627 
   25000    26905    301.62378   -293.98997   -2953887.5    24188.934   -2929698.6    268618.18    1.1231891    51.211615    51.211615    102.42323 
   25100    26905    301.74711   -671.65207   -2953784.6    24198.825   -2929585.8    268696.33    1.1228624     51.21658     51.21658    102.43316 
   25200    26905     303.4946   -1697.2972   -2954041.4    24338.966   -2929702.5       268728    1.1227301    51.218593    51.218593    102.43719 
   25300    26905    298.86172    953.54436   -2954052.5    23967.429   -2930085.1       268741    1.1226758    51.219418    51.219418    102.43884 
   25400    26905    299.33301    674.24768   -2954285.7    24005.225   -2930280.4    269314.04     1.120287    51.255798    51.255798     102.5116 
   25500    26905    299.70959   -82.402006   -2954161.4    24035.425     -2930126    269514.23    1.1194549    51.268495    51.268495    102.53699 
   25600    26905    302.67336   -1857.3537   -2954049.2    24273.106   -2929776.1    269512.69    1.1194612    51.268398    51.268398     102.5368 
   25700    26905    301.55958    3167.3007     -2953752    24183.786   -2929568.2    269145.54    1.1209883    51.245106    51.245106    102.49021 
   25800    26905    301.91582    226.59266   -2953745.7    24212.355   -2929533.3    269086.86    1.1212328    51.241382    51.241382    102.48276 
   25900    26905    300.57574    958.08307   -2953765.8    24104.886   -2929660.9    269212.36    1.1207101    51.249346    51.249346    102.49869 
   26000    26905    300.52716    1638.3863   -2954024.6     24100.99   -2929923.6    269396.85    1.1199426    51.261051    51.261051     102.5221 
   26100    26905    296.26885   -449.99153     -2954061    23759.492   -2930301.6    269326.62    1.1202347    51.256596    51.256596    102.51319 
   26200    26905    297.74904   -998.13145   -2954296.3    23878.197   -2930418.1    269072.32    1.1212934    51.240459    51.240459    102.48092 
   26300    26905     297.9569    -175.1127   -2954070.7    23894.866   -2930175.9    268598.52    1.1232713    51.210365    51.210365    102.42073 
   26400    26905    301.36394    927.94093   -2953936.5    24168.096   -2929768.4    268139.18    1.1251955    51.181157    51.181157    102.36231 
   26500    26905    301.62239   -749.13978   -2953884.9    24188.823   -2929696.1    268174.05    1.1250492    51.183375    51.183375    102.36675 
   26600    26905    301.23768    1158.7117   -2954096.5    24157.971   -2929938.5    268011.62    1.1257311    51.173039    51.173039    102.34608 
   26700    26905    298.25075   -796.61674   -2954136.4    23918.431     -2930218     267487.1    1.1279386    51.139634    51.139634    102.27927 
   26800    26905    299.72568   -1535.2266   -2954352.1    24036.715   -2930315.3     267101.9    1.1295652    51.115074    51.115074    102.23015 
   26900    26905    298.89258     -804.485   -2954269.9    23969.904     -2930300    266973.75    1.1301074    51.106898    51.106898     102.2138 
   27000    26905     301.2154    957.77854   -2954252.8    24156.184   -2930096.6    266886.38    1.1304774    51.101323    51.101323    102.20265 
   27100    26905    300.90302   -1730.5054   -2954114.4    24131.132   -2929983.3    267268.76      1.12886    51.125716    51.125716    102.25143 
   27200    26905     301.0489     1713.213   -2954139.8    24142.832     -2929997    267261.73    1.1288897    51.125267    51.125267    102.25053 
   27300    26905    299.45501    1180.7417   -2954099.6    24015.008   -2930084.6    267201.14    1.1291457    51.121404    51.121404    102.24281 
   27400    26905    299.01784     1948.559   -2954123.6    23979.949   -2930143.7    267029.65    1.1298709    51.110464    51.110464    102.22093 
   27500    26905    299.23818   -1887.5615     -2954168    23997.619   -2930170.3    266978.48    1.1300874      51.1072      51.1072     102.2144 
   27600    26905     300.1699    1229.6072   -2954185.5     24072.34   -2930113.2    266533.08    1.1319759    51.078763    51.078763    102.15753 
   27700    26905    302.22791    105.54205   -2954247.1    24237.383   -2930009.8    266475.58    1.1322201     51.07509     51.07509    102.15018 
   27800    26905     299.9217    581.83315   -2954090.9    24052.435   -2930038.5     266333.4    1.1328245    51.066005    51.066005    102.13201 
   27900    26905     300.2917   -1792.2689   -2954159.5    24082.107   -2930077.4    266405.74    1.1325169    51.070627    51.070627    102.14125 
   28000    26905    300.21967   -2350.9053   -2954095.6    24076.331   -2930019.2    266724.29    1.1311644    51.090975    51.090975    102.18195 
   28100    26905    298.77258    -1397.218   -2953924.8     23960.28   -2929964.5    266887.88     1.130471    51.101418    51.101418    102.20284 
   28200    26905    300.83254   -743.27241   -2954000.3     24125.48   -2929874.8    266795.71    1.1308615    51.095535    51.095535    102.19107 
   28300    26905    302.58065    1411.6718   -2954205.1    24265.671   -2929939.4     266672.9    1.1313823    51.087694    51.087694    102.17539 
   28400    26905    296.00554     1303.444     -2953947    23738.375   -2930208.7    266716.19    1.1311987    51.090458    51.090458    102.18092 
   28500    26905    298.43093   -1935.7597   -2954147.1    23932.881   -2930214.2    266414.12    1.1324813    51.071163    51.071163    102.14233 
   28600    26905    301.73954   -1539.3084   -2954244.5    24198.218   -2930046.3    266386.22    1.1325999     51.06938     51.06938    102.13876 
   28700    26905     299.3012    300.47115   -2954031.9    24002.674   -2930029.3    266598.39    1.1316986    51.082935    51.082935    102.16587 
   28800    26905    300.73968    803.47062   -2954121.3    24118.033   -2930003.3    266586.18    1.1317504    51.082155    51.082155    102.16431 
   28900    26905    299.10975    601.25276   -2953945.8     23987.32   -2929958.5    266224.53    1.1332878    51.059045    51.059045    102.11809 
   29000    26905    300.44884   -519.15946   -2954034.5    24094.709   -2929939.8     265868.2    1.1348067    51.036255    51.036255    102.07251 
   29100    26905    302.57904    234.86601   -2954354.9    24265.542   -2930089.3    265594.79    1.1359749    51.018755    51.018755    102.03751 
   29200    26905    299.05184   -957.49993   -2954380.6    23982.676   -2930397.9    265548.08    1.1361747    51.015763    51.015763    102.03153 
   29300    26905    296.87807    2356.3467   -2954351.2    23808.349   -2930542.9    265759.43    1.1352712    51.029294    51.029294    102.05859 
   29400    26905    299.72648    1864.1137   -2954487.7    24036.779     -2930451     266170.2    1.1335191    51.055572    51.055572    102.11114 
   29500    26905    300.21686   -535.39944   -2954353.3    24076.105   -2930277.2    266407.58    1.1325091    51.070745    51.070745    102.14149 
   29600    26905    299.42424   -259.01901   -2954092.3     24012.54   -2930079.7    266210.89    1.1333459    51.058173    51.058173    102.11635 
   29700    26905     302.6598    -172.2082   -2954220.2    24272.019   -2929948.2    265976.23    1.1343458    51.043167    51.043167    102.08633 
   29800    26905    301.89598    187.65474   -2954262.6    24210.764   -2930051.9     265996.2    1.1342606    51.044444    51.044444    102.08889 
   29900    26905    300.16817    1255.6344   -2954434.6      24072.2   -2930362.4     265902.8     1.134659    51.038469    51.038469    102.07694 
   30000    26905     297.4167    1409.7031   -2954468.9    23851.545   -2930617.3    265494.44    1.1364043    51.012328    51.012328    102.02466 
   30100    26905    299.07497    1939.2452   -2954458.7    23984.531   -2930474.2    265250.19    1.1374507     50.99668     50.99668    101.99336 
   30200    26905    302.41429    1137.7258   -2954340.4     24252.33   -2930088.1    265146.91    1.1378938     50.99006     50.99006    101.98012 
   30300    26905    301.98005    108.54886   -2954183.6    24217.506   -2929966.1    264844.31    1.1391938    50.970656    50.970656    101.94131 
   30400    26905    298.82572   -2036.9325   -2954156.1    23964.542   -2930191.5    264720.87    1.1397251    50.962735    50.962735    101.92547 
   30500    26905    300.05869    520.84196   -2954443.7    24063.421   -2930380.3    264777.83    1.1394799     50.96639     50.96639    101.93278 
   30600    26905    298.80261    1685.3851   -2954433.9    23962.689   -2930471.2    264677.19    1.1399131    50.959932    50.959932    101.91986 
   30700    26905    299.07075      198.051   -2954368.1    23984.192   -2930383.9    264758.74     1.139562    50.965165    50.965165    101.93033 
   30800    26905    299.79936    246.86995   -2954147.2    24042.623   -2930104.6    264737.26    1.1396545    50.963787    50.963787    101.92757 
   30900    26905    303.78306    933.89203   -2954245.3      24362.1   -2929883.2    264423.85    1.1410053    50.943668    50.943668    101.88734 
   31000    26905    301.67381      2391.51   -2954208.2    24192.946   -2930015.2    264447.77    1.1409021    50.945204    50.945204    101.89041 
   31100    26905    300.63798    842.20625     -2954361    24109.878   -2930251.1    264800.89    1.1393807     50.96787     50.96787    101.93574 
   31200    26905    296.95841    1330.5662   -2954254.2    23814.791   -2930439.4    265017.33    1.1384501    50.981752    50.981752     101.9635 
   31300    26905    300.85734    1269.8916   -2954543.4    24127.469   -2930415.9    264847.67    1.1391794    50.970871    50.970871    101.94174 
   31400    26905    300.54418    1215.8734     -2954438    24102.355   -2930335.6    264516.96    1.1406036    50.949647    50.949647    101.89929 
   31500    26905    298.81504   -280.18733   -2954127.3    23963.685   -2930163.6    264277.89    1.1416355    50.934293    50.934293    101.86859 
   31600    26905    300.78525   -231.20238   -2954168.9    24121.688   -2930047.2    264352.31    1.1413141    50.939073    50.939073    101.87815 
   31700    26905    302.00583    949.09875   -2954285.1    24219.573   -2930065.5     264677.5    1.1399118    50.959952    50.959952     101.9199 
   31800    26905    299.38888   -626.36346     -2954324    24009.705   -2930314.3    264807.27    1.1393532    50.968279    50.968279    101.93656 
   31900    26905    298.34272   -812.61577     -2954412    23925.807   -2930486.2    264691.96    1.1398496     50.96088     50.96088    101.92176 
   32000    26905     298.5194   -474.12139   -2954355.5    23939.977   -2930415.5    264479.16    1.1407667     50.94722     50.94722    101.89444 
   32100    26905    299.38694   -788.50311   -2954253.8    24009.549   -2930244.3    264641.06    1.1400688    50.957613    50.957613    101.91523 
   32200    26905    300.77032    23.986143   -2954174.3    24120.491   -2930053.9    264730.95    1.1396817    50.963382    50.963382    101.92676 
   32300    26905    301.34668   -45.481222   -2954223.8    24166.712   -2930057.1    264715.12    1.1397498    50.962366    50.962366    101.92473 
   32400    26905    299.74632    187.43447   -2954348.4     24038.37     -2930310     264888.7     1.139003    50.973503    50.973503    101.94701 
   32500    26905    295.87933    1362.5011   -2954328.9    23728.254   -2930600.6    265062.23    1.1382573    50.984632    50.984632    101.96926 
   32600    26905    296.18518   -387.95654   -2954270.2    23752.782   -2930517.4    264866.07    1.1391003    50.972051    50.972051     101.9441 
   32700    26905    300.86343   -22.837431     -2954220    24127.958     -2930092    264679.94    1.1399013    50.960108    50.960108    101.92022 
   32800    26905    303.08404   -584.30965   -2954178.7    24306.041   -2929872.6    264839.31    1.1392154    50.970334    50.970334    101.94067 
   32900    26905    300.02287    852.57564     -2954073    24060.548   -2930012.5    265232.42    1.1375269    50.995541    50.995541    101.99108 
   33000    26905    299.09881    -826.6404   -2954247.8    23986.443   -2930261.3    265363.48    1.1369651    51.003939    51.003939    102.00788 
   33100    26905    300.17241    543.87139   -2954395.9     24072.54   -2930323.3    265106.81    1.1380659     50.98749     50.98749    101.97498 
   33200    26905    297.99646   -1095.8686   -2954129.1    23898.039   -2930231.1    264962.66     1.138685    50.978246    50.978246    101.95649 
   33300    26905    302.29358   -462.69067     -2954335     24242.65   -2930092.3    264974.87    1.1386326    50.979029    50.979029    101.95806 
   33400    26905    301.24362   -135.96285   -2954309.6    24158.447   -2930151.1    264801.95    1.1393761    50.967938    50.967938    101.93588 
   33500    26905    299.15097    1197.7597   -2954333.7    23990.626   -2930343.1    264766.34    1.1395293    50.965653    50.965653    101.93131 
   33600    26905    298.94848    2234.3607   -2954446.6    23974.386   -2930472.2    264530.38    1.1405458    50.950508    50.950508    101.90102 
   33700    26905    298.91576   -2754.7233     -2954319    23971.762   -2930347.3    264536.96    1.1405174     50.95093     50.95093    101.90186 
   33800    26905     301.3499   -740.73235     -2954339     24166.97     -2930172    264299.23    1.1415433    50.935663    50.935663    101.87133 
   33900    26905    301.50516    -40.20837   -2954303.3    24179.421   -2930123.9    264291.75    1.1415756    50.935183    50.935183    101.87037 
   34000    26905    300.45271    1804.7307   -2954384.6     24095.02   -2930289.6    264173.53    1.1420865    50.927587    50.927587    101.85517 
   34100    26905    298.08834    376.00771   -2954432.6    23905.407   -2930527.2    264109.55    1.1423631    50.923476    50.923476    101.84695 
   34200    26905    297.05191    52.882508   -2954362.5     23822.29   -2930540.2    264298.48    1.1415465    50.935615    50.935615    101.87123 
   34300    26905    299.62483    1234.6414   -2954383.1    24028.627   -2930354.4    264305.54    1.1415161    50.936069    50.936069    101.87214 
   34400    26905    299.68146   -202.75792     -2954249    24033.169   -2930215.9     264371.3    1.1412321    50.940293    50.940293    101.88059 
   34500    26905    300.43761     481.5945   -2954246.4    24093.808   -2930152.6       264058    1.1425862    50.920162    50.920162    101.84032 
   34600    26905    300.26387   -1887.7857   -2954275.9    24079.875   -2930196.1    263970.38    1.1429654    50.914529    50.914529    101.82906 
   34700    26905    298.64944    1152.6479   -2954312.8    23950.405   -2930362.4    263731.21    1.1440019    50.899148    50.899148     101.7983 
   34800    26905    299.34729   -124.49311   -2954476.6    24006.369   -2930470.2    263573.64    1.1446858    50.889009    50.889009    101.77802 
   34900    26905    298.80969   -1458.5934   -2954462.8    23963.256   -2930499.6    263424.35    1.1453346    50.879399    50.879399     101.7588 
   35000    26905    299.59117    -941.2256   -2954462.3    24025.928   -2930436.4     263174.1    1.1464237    50.863282    50.863282    101.72656 
   35100    26905    301.61825    736.20303   -2954470.2    24188.491   -2930281.7    262829.67     1.147926    50.841083    50.841083    101.68217 
   35200    26905    301.41454    -359.5004   -2954462.4    24172.154   -2930290.3    263057.22     1.146933    50.855752    50.855752     101.7115 
   35300    26905    299.47618   -300.65347   -2954448.5    24016.706   -2930431.8    263211.45     1.146261    50.865688    50.865688    101.73138 
   35400    26905    298.22348    237.05825   -2954324.6    23916.245   -2930408.4    263509.09    1.1449663    50.884854    50.884854    101.76971 
   35500    26905    298.59514    -432.3913   -2954246.9     23946.05   -2930300.8    263626.58     1.144456    50.892416    50.892416    101.78483 
   35600    26905    298.64556   -2147.8631   -2954154.8    23950.094   -2930204.7    263433.29    1.1452957    50.879975    50.879975    101.75995 
   35700    26905    299.74938    484.57981   -2954303.7    24038.615   -2930265.1    263306.73    1.1458462    50.871825    50.871825    101.74365 
   35800    26905    299.99326   -3969.3254   -2954436.6    24058.174   -2930378.4    263240.04    1.1461365     50.86753     50.86753    101.73506 
   35900    26905    299.00857   -159.26431   -2954477.4    23979.205   -2930498.2    263078.64    1.1468397    50.857132    50.857132    101.71426 
   36000    26905    299.10829    309.86637   -2954459.4    23987.203   -2930472.2    262731.91    1.1483531    50.834779    50.834779    101.66956 
   36100    26905    303.78072   -314.87194   -2954611.8    24361.911   -2930249.8    262736.12    1.1483347    50.835051    50.835051     101.6701 
   36200    26905    300.81925   -1440.4158   -2954364.6    24124.414   -2930240.2       262697    1.1485058    50.832527    50.832527    101.66505 
   36300    26905    299.58832    686.04158   -2954568.6    24025.699   -2930542.9    262544.52    1.1491727    50.822691    50.822691    101.64538 
   36400    26905    298.98996   -988.73761   -2954647.7    23977.713     -2930670    262599.86    1.1489306    50.826261    50.826261    101.65252 
   36500    26905    300.38611    416.29333   -2954650.8    24089.678   -2930561.1    262908.48    1.1475819    50.846165    50.846165    101.69233 
   36600    26905    301.24292    1583.5676   -2954562.3    24158.391   -2930403.9    263000.64    1.1471798    50.852105    50.852105    101.70421 
   36700    26905    299.64131    958.08705   -2954425.2    24029.949   -2930395.3    262652.83    1.1486989    50.829679    50.829679    101.65936 
   36800    26905    296.50684    1438.2048   -2954427.5    23778.577     -2930649    262465.96    1.1495167    50.817621    50.817621    101.63524 
   36900    26905    296.46616   -2408.3443   -2954473.8    23775.315   -2930698.5     262595.2     1.148951    50.825961    50.825961    101.65192 
   37000    26905    299.44303   -913.63289   -2954470.3    24014.047   -2930456.3    262401.87    1.1497975    50.813485    50.813485    101.62697 
   37100    26905    301.35711    1450.3361   -2954568.3    24167.548   -2930400.8    262174.52    1.1507946    50.798805    50.798805    101.59761 
   37200    26905    299.04551   -410.07837   -2954460.8    23982.168   -2930478.6    262182.14    1.1507611    50.799297    50.799297    101.59859 
   37300    26905    298.32777    2497.0326   -2954459.1    23924.608   -2930534.5    262315.33    1.1501768    50.807898    50.807898     101.6158 
   37400    26905    297.93484   -1501.3874   -2954503.8    23893.097   -2930610.7    262494.83    1.1493903    50.819484    50.819484    101.63897 
   37500    26905    298.12334    572.33111   -2954398.6    23908.214   -2930490.4    262644.05    1.1487373    50.829112    50.829112    101.65822 
   37600    26905    300.14421   -3519.5042   -2954331.5    24070.279   -2930261.2    262594.29     1.148955    50.825902    50.825902     101.6518 
   37700    26905    301.55048    805.08407   -2954403.4    24183.056   -2930220.3    262018.72    1.1514789     50.78874     50.78874    101.57748 
   37800    26905    299.28124    8.8621432   -2954356.1    24001.073   -2930355.1    261758.51    1.1526235    50.771922    50.771922    101.54384 
   37900    26905    298.86716   -1178.7027     -2954563    23967.865   -2930595.2    261853.31    1.1522062    50.778051    50.778051     101.5561 
   38000    26905     299.4417    221.45872   -2954584.3    24013.941   -2930570.3    261764.48    1.1525972    50.772308    50.772308    101.54462 
   38100    26905    300.96295    328.60169   -2954644.5    24135.939   -2930508.6    261821.35    1.1523469    50.775985    50.775985    101.55197 
   38200    26905    301.28983    842.10032   -2954643.9    24162.153   -2930481.8    261636.54    1.1531608    50.764035    50.764035    101.52807 
   38300    26905    300.07043    1884.2462   -2954520.1    24064.362   -2930455.8       261320    1.1545577    50.743554    50.743554    101.48711 
   38400    26905    298.79274    110.13164   -2954519.7    23961.897   -2930557.8    261034.42    1.1558208    50.725063    50.725063    101.45013 
   38500    26905    299.88289    197.53167   -2954720.9    24049.323   -2930671.6    260744.61    1.1571055    50.706284    50.706284    101.41257 
   38600    26905    295.79763    360.93529   -2954581.7    23721.702     -2930860    260919.49    1.1563299    50.717617    50.717617    101.43523 
   38700    26905    298.05597   -779.19241   -2954826.8    23902.811     -2930924    261190.95    1.1551281      50.7352      50.7352     101.4704 
   38800    26905    299.96763   -1503.6239   -2954683.7    24056.118   -2930627.5    261167.24     1.155233    50.733665    50.733665    101.46733 
   38900    26905    303.17676    2693.1435   -2954818.6    24313.477   -2930505.2    260731.17    1.1571651    50.705412    50.705412    101.41082 
   39000    26905    300.28618   -2004.0152   -2954749.7    24081.665   -2930668.1    260955.52    1.1561702    50.719952    50.719952     101.4399 
   39100    26905    298.84777   -841.87151   -2954738.1    23966.311   -2930771.7    261461.83    1.1539314    50.752733    50.752733    101.50547 
   39200    26905    300.48299   -1074.9855   -2954825.8    24097.448   -2930728.3    261938.72    1.1518305    50.783571    50.783571    101.56714 
   39300    26905    300.32809   -1139.0886     -2954442    24085.025     -2930357    262000.66    1.1515582    50.787573    50.787573    101.57515 
   39400    26905    302.39203     519.3987     -2954511    24250.545   -2930260.5     261790.3    1.1524835    50.773978    50.773978    101.54796 
   39500    26905    299.83488    1441.5455   -2954444.4    24045.472   -2930398.9    261635.62    1.1531649    50.763975    50.763975    101.52795 
   39600    26905    298.35695    825.21195   -2954487.6    23926.949   -2930560.6    261497.59    1.1537736    50.755047    50.755047    101.51009 
   39700    26905    300.08796    401.54699   -2954800.6    24065.768   -2930734.9    261318.91    1.1545625    50.743484    50.743484    101.48697 
   39800    26905    299.39465    144.82245   -2954759.5    24010.168   -2930749.4    261173.17    1.1552068    50.734049    50.734049     101.4681 
   39900    26905    302.52002   -893.55219   -2954645.6    24260.809   -2930384.8    260802.01    1.1568508    50.710004    50.710004    101.42001 
   40000    26905    299.99638     12.39593   -2954485.7    24058.424   -2930427.3    260580.18    1.1578356    50.695623    50.695623    101.39125 
   40100    26905    299.18706   -1006.0385   -2954637.4     23993.52   -2930643.9    260800.15    1.1568591    50.709884    50.709884    101.41977 
   40200    26905     297.2587     1588.292   -2954488.1    23838.874   -2930649.2    260995.14    1.1559948    50.722518    50.722518    101.44504 
   40300    26905    301.63283   -896.84975   -2954621.4     24189.66   -2930431.7    261385.27    1.1542694    50.747779    50.747779    101.49556 
   40400    26905    302.31588   -766.29186   -2954677.2    24244.437   -2930432.7    261520.32    1.1536733    50.756517    50.756517    101.51303 
   40500    26905    298.40751   -816.13944   -2954501.8    23931.003   -2930570.8     261523.6    1.1536588     50.75673     50.75673    101.51346 
   40600    26905    301.27751    2253.5303   -2954792.7    24161.165   -2930631.5    261436.71    1.1540422    50.751108    50.751108    101.50222 
   40700    26905      296.619    607.07391   -2954643.3    23787.573   -2930855.7       261399    1.1542087    50.748667    50.748667    101.49733 
   40800    26905    297.79192   -1693.0653   -2954811.4    23881.635   -2930929.8    261447.33    1.1539954    50.751795    50.751795    101.50359 
   40900    26905    299.90943    35.225672   -2954649.1    24051.451   -2930597.7    261426.35     1.154088    50.750437    50.750437    101.50087 
   41000    26905    300.05937    400.62126   -2954528.1    24063.475   -2930464.6    261377.22    1.1543049    50.747258    50.747258    101.49452 
   41100    26905    298.61838    1190.6883   -2954443.1    23947.914   -2930495.2     261185.3    1.1551531    50.734834    50.734834    101.46967 
   41200    26905    299.02998    1120.2339   -2954604.9    23980.923     -2930624    261327.09    1.1545264    50.744013    50.744013    101.48803 
   41300    26905    300.57245    310.30936   -2954891.4    24104.622   -2930786.8    261614.21    1.1532593    50.762591    50.762591    101.52518 
   41400    26905    296.78052    826.39008   -2954744.4    23800.526   -2930943.9    261618.85    1.1532388    50.762891    50.762891    101.52578 
   41500    26905     299.3417   -975.95819   -2954715.6    24005.921   -2930709.7     261470.4    1.1538936    50.753288    50.753288    101.50658 
   41600    26905    301.38802   -1032.2959   -2954647.2    24170.027   -2930477.2    261151.48    1.1553027    50.732644    50.732644    101.46529 
   41700    26905    299.69394   -629.60479   -2954536.3     24034.17   -2930502.2    260867.28    1.1565614    50.714234    50.714234    101.42847 
   41800    26905    299.82372   -1048.0292   -2954650.3    24044.578   -2930605.7    260888.23    1.1564685    50.715592    50.715592    101.43118 
   41900    26905    298.17592   -395.76817   -2954669.6    23912.431   -2930757.1    260990.25    1.1560164    50.722201    50.722201     101.4444 
   42000    26905    297.58638   -2016.2307   -2954608.8    23865.152   -2930743.7    260885.67    1.1564798    50.715426    50.715426    101.43085 
   42100    26905    300.90914   -1684.8855   -2954558.6    24131.624     -2930427    260749.65    1.1570831     50.70661     50.70661    101.41322 
   42200    26905    301.55072   -449.57945   -2954517.8    24183.075   -2930334.7    260497.41    1.1582035    50.690254    50.690254    101.38051 
   42300    26905    300.19381    1662.4947   -2954431.3    24074.257     -2930357    260252.82     1.159292    50.674384    50.674384    101.34877 
   42400    26905    300.87224   -353.19484     -2954643    24128.664   -2930514.4    260254.93    1.1592826    50.674521    50.674521    101.34904 
   42500    26905    298.42013    659.78305   -2954665.2    23932.015   -2930733.2    260462.56    1.1583585    50.687994    50.687994    101.37599 
   42600    26905    298.69122   -360.54127   -2954584.6    23953.755   -2930630.8    260608.41    1.1577102    50.697453    50.697453    101.39491 
   42700    26905    299.19131    505.52855     -2954426    23993.861   -2930432.1    260676.07    1.1574097     50.70184     50.70184    101.40368 
   42800    26905    300.40103   -35.069561   -2954474.2    24090.875   -2930383.3    260661.88    1.1574727     50.70092     50.70092    101.40184 
   42900    26905    300.85301   -280.54656   -2954569.3    24127.122   -2930442.1    260350.52     1.158857    50.680725    50.680725    101.36145 
   43000    26905    300.27055   -1239.2847   -2954637.2    24080.411   -2930556.8    260228.49    1.1594004    50.672805    50.672805    101.34561 
   43100    26905    298.23737    2853.6208   -2954670.1    23917.359   -2930752.8    260138.81    1.1598001    50.666984    50.666984    101.33397 
   43200    26905    296.63333   -54.735431   -2954731.1    23788.722   -2930942.4    260207.52    1.1594938    50.671444    50.671444    101.34289 
   43300    26905    296.20525    246.89838   -2954667.4    23754.391     -2930913    260161.39    1.1596994     50.66845     50.66845     101.3369 
   43400    26905    298.67711    1219.2539   -2954508.3    23952.624   -2930555.7    260247.95    1.1593137    50.674069    50.674069    101.34814 
   43500    26905    299.65856    1251.7588   -2954471.4    24031.332   -2930440.1    260284.21    1.1591522    50.676422    50.676422    101.35284 
   43600    26905    300.86043   -433.38565   -2954633.9    24127.717   -2930506.2    260652.91    1.1575126    50.700339    50.700339    101.40068 
   43700    26905    299.36317   -932.28335   -2954724.6    24007.643     -2930717    260835.75    1.1567012    50.712191    50.712191    101.42438 
   43800    26905    298.21971    -715.9551   -2954693.5    23915.943   -2930777.6    260676.53    1.1574077     50.70187     50.70187    101.40374 
   43900    26905     300.4884   -358.54051   -2954653.8    24097.881   -2930555.9    260415.03    1.1585699     50.68491     50.68491    101.36982 
   44000    26905    302.90247   -143.99849   -2954635.8     24291.48   -2930344.3    260267.54    1.1592264     50.67534     50.67534    101.35068 
   44100    26905    301.54359   -1725.1629     -2954693    24182.504   -2930510.5    260325.87    1.1589667    50.679126    50.679126    101.35825 
   44200    26905    299.06478    203.33396   -2954596.8    23983.713   -2930613.1    260262.96    1.1592469    50.675042    50.675042    101.35008 
   44300    26905    300.06846   -931.34566   -2954668.2    24064.204   -2930603.9    260363.31       1.1588    50.681555    50.681555    101.36311 
   44400    26905    299.16166    671.13194   -2954646.5    23991.483     -2930655    260212.43     1.159472    50.671763    50.671763    101.34353 
   44500    26905    299.50387     -511.682     -2954666    24018.927   -2930647.1    260104.78    1.1599518    50.664774    50.664774    101.32955 
   44600    26905    300.79084   -585.79268   -2954549.8    24122.136   -2930427.6    260038.06    1.1602494    50.660442    50.660442    101.32088 
   44700    26905     302.3239    25.116808   -2954548.8    24245.081   -2930303.7    259950.83    1.1606388    50.654777    50.654777    101.30955 
   44800    26905    299.97952   -2169.2353   -2954561.2    24057.072   -2930504.1    259904.53    1.1608455    50.651769    50.651769    101.30354 
   44900    26905    300.46488    1297.1293   -2954767.2    24095.996   -2930671.2    259681.32    1.1618433    50.637265    50.637265    101.27453 
   45000    26905    299.80843   -708.12787     -2954789    24043.351   -2930745.7    259304.13    1.1635334    50.612736    50.612736    101.22547 
   45100    26905    300.11577    89.683773   -2954842.7    24067.998   -2930774.7    259382.79    1.1631805    50.617853    50.617853    101.23571 
   45200    26905    297.39618     901.1247   -2954652.4    23849.898   -2930802.5    259320.32    1.1634607    50.613789    50.613789    101.22758 
   45300    26905     298.1769    792.09427   -2954466.3    23912.509   -2930553.8    259631.85    1.1620647    50.634049    50.634049     101.2681 
   45400    26905     303.2981    334.40537     -2954704    24323.207   -2930380.8    259920.25    1.1607753     50.65279     50.65279    101.30558 
   45500    26905    298.89388   -990.82632   -2954514.6    23970.008   -2930544.6    260118.63    1.1598901    50.665674    50.665674    101.33135 
   45600    26905    300.60654   -1262.0154   -2954679.8    24107.356   -2930572.4    260384.54    1.1587056    50.682932    50.682932    101.36586 
   45700    26905    299.81655    1808.6493   -2954576.1    24044.002   -2930532.1    260528.14    1.1580669    50.692247    50.692247    101.38449 
   45800    26905    301.92465    257.99784   -2954662.7    24213.063   -2930449.6    260585.45    1.1578122    50.695964    50.695964    101.39193 
   45900    26905    302.70938    323.60255   -2954794.1    24275.995   -2930518.1    260358.02    1.1588236    50.681212    50.681212    101.36242 
   46000    26905    299.20845    2925.6789   -2954755.9    23995.235   -2930760.6    260140.19    1.1597939    50.667073    50.667073    101.33415 
   46100    26905    299.18119    359.39281   -2954802.8    23993.049   -2930809.7    259839.98    1.1611339    50.647575    50.647575    101.29515 
   46200    26905    299.77459    753.65579   -2954720.6    24040.637     -2930680     259634.6    1.1620524    50.634228    50.634228    101.26846 
   46300    26905    302.26741   -226.49246   -2954671.3     24240.55   -2930430.8    260000.39    1.1604175    50.657996    50.657996    101.31599 
   46400    26905    301.37799   -2355.7628   -2954626.5    24169.223   -2930457.3    260033.23     1.160271    50.660128    50.660128    101.32026 
   46500    26905    301.06015    926.50674   -2954683.5    24143.734   -2930539.8    260170.51    1.1596588    50.669042    50.669042    101.33808 
   46600    26905    299.90642    532.57936   -2954717.1    24051.209   -2930665.9    260279.96    1.1591711    50.676146    50.676146    101.35229 
   46700    26905    299.81137    67.896358   -2954734.8    24043.587   -2930691.2    260164.32    1.1596864     50.66864     50.66864    101.33728 
   46800    26905    299.26509    1992.7289   -2954636.9    23999.777   -2930637.2    259922.67    1.1607645    50.652947    50.652947    101.30589 
   46900    26905    300.62409    1343.8938   -2954730.2    24108.764   -2930621.5    259788.71    1.1613631    50.644244    50.644244    101.28849 
   47000    26905    297.14286    1679.8183   -2954763.2    23829.583   -2930933.6    259934.76    1.1607105    50.653733    50.653733    101.30747 
   47100    26905    298.28332   -2093.5448   -2954863.5    23921.043   -2930942.5    260007.25    1.1603869    50.658441    50.658441    101.31688 
   47200    26905    298.39325   -386.06993     -2954763     23929.86   -2930833.1    259803.61    1.1612965    50.645212    50.645212    101.29042 
   47300    26905    300.71093   -809.35322   -2954845.5    24115.727   -2930729.8    259423.98    1.1629958    50.620533    50.620533    101.24107 
   47400    26905    301.49341   -923.99525   -2954653.7    24178.479   -2930475.3    259266.28    1.1637033    50.610273    50.610273    101.22055 
   47500    26905    301.07723    2296.8506   -2954634.5    24145.103   -2930489.4    259323.21    1.1634478    50.613977    50.613977    101.22795 
   47600    26905     298.8227    251.76975   -2954739.2    23964.299   -2930774.9    259569.15    1.1623454    50.629973    50.629973    101.25995 
   47700    26905     299.5488   -460.58892   -2954840.6    24022.529   -2930818.1    259823.74    1.1612065     50.64652     50.64652    101.29304 
   47800    26905    299.82442   -919.66517   -2954780.1    24044.633   -2930735.4    259828.46    1.1611854    50.646827    50.646827    101.29365 
   47900    26905    300.63387    1958.9755   -2954684.3    24109.548   -2930574.8    259555.54    1.1624064    50.629088    50.629088    101.25818 
   48000    26905    301.80162    1418.3364   -2954640.4    24203.196   -2930437.2    259601.06    1.1622026    50.632047    50.632047    101.26409 
   48100    26905    302.95864   -1914.8037   -2954543.6    24295.984   -2930247.7    259946.57    1.1606578      50.6545      50.6545      101.309 
   48200    26905    302.98945    82.809644   -2954722.5    24298.455   -2930424.1    259545.92    1.1624495    50.628462    50.628462    101.25692 
   48300    26905    300.52747   -1246.0113   -2954797.7    24101.015   -2930696.7    259433.15    1.1629548    50.621129    50.621129    101.24226 
   48400    26905    300.12469   -2491.6325   -2954768.7    24068.714     -2930700    259400.48    1.1631012    50.619004    50.619004    101.23801 
   48500    26905      300.551   -1758.2106   -2954688.6    24102.902   -2930585.7    259636.05    1.1620459    50.634322    50.634322    101.26864 
   48600    26905    298.07481    1256.9906   -2954497.2    23904.322   -2930592.8    259655.58    1.1619585    50.635591    50.635591    101.27118 
   48700    26905    299.35706     -279.994   -2954826.6    24007.153   -2930819.4    259736.33    1.1615973     50.64084     50.64084    101.28168 
   48800    26905    297.96321    1073.2191   -2954859.8    23895.372   -2930964.5    259763.63    1.1614752    50.642614    50.642614    101.28523 
   48900    26905    301.18732    1566.9166   -2954923.8    24153.932   -2930769.9    259714.09    1.1616967    50.639395    50.639395    101.27879 
   49000    26905    300.65638   -1458.7385   -2954809.4    24111.353     -2930698    259580.11    1.1622963    50.630685    50.630685    101.26137 
   49100    26905    299.51651   -227.17269   -2954697.5     24019.94   -2930677.6    259337.87     1.163382    50.614931    50.614931    101.22986 
   49200    26905    301.31255   -2303.7733   -2954803.8    24163.975   -2930639.9    259183.46    1.1640751    50.604884    50.604884    101.20977 
   49300    26905    300.43477   -242.01558   -2954803.6    24093.581     -2930710    258876.69    1.1654545    50.584911    50.584911    101.16982 
   49400    26905    298.62123   -870.11933     -2954834    23948.143   -2930885.8    258636.04    1.1665389    50.569231    50.569231    101.13846 
   49500    26905    297.74143    2683.1186   -2954913.7    23877.587   -2931036.1    258498.14    1.1671612    50.560242    50.560242    101.12048 
   49600    26905    299.86151   -1080.7837   -2954999.2    24047.608   -2930951.6    258440.82    1.1674201    50.556504    50.556504    101.11301 
   49700    26905    300.95203    1785.8526   -2954876.7    24135.063   -2930741.7    258223.97    1.1684005     50.54236     50.54236    101.08472 
   49800    26905     301.9673    427.03435   -2954778.3    24216.483   -2930561.8    257989.38    1.1694629     50.52705     50.52705     101.0541 
   49900    26905    300.81394    -748.7572   -2954625.4    24123.988   -2930501.4    257906.63    1.1698381    50.521648    50.521648     101.0433 
   50000    26905    299.94004    130.24721   -2954844.2    24053.906   -2930790.3    258054.89     1.169166    50.531327    50.531327    101.06265 
   50100    26905    297.96095    1266.4867   -2954834.2    23895.191     -2930939    258382.01    1.1676859    50.552669    50.552669    101.10534 
   50200    26905    301.39584    2554.0147   -2954981.8    24170.654   -2930811.1    258613.79    1.1666393    50.567781    50.567781    101.13556 
   50300    26905    301.03409    2391.4543   -2954844.8    24141.644   -2930703.1    258810.63     1.165752    50.580607    50.580607    101.16121 
   50400    26905    299.20131    2034.9968   -2954649.7    23994.663     -2930655    258688.94    1.1663004    50.572679    50.572679    101.14536 
   50500    26905    299.98946   -2767.6414   -2954715.3    24057.869   -2930657.4     258763.5    1.1659644    50.577536    50.577536    101.15507 
   50600    26905     300.7152   -616.53382     -2954966     24116.07   -2930849.9    258598.18    1.1667097    50.566763    50.566763    101.13353 
   50700    26905    298.78587   -2232.0436   -2954926.8    23961.346   -2930965.5    258739.62     1.166072    50.575981    50.575981    101.15196 
   50800    26905    301.65664    591.42565   -2955069.4     24191.57   -2930877.8    258892.82    1.1653819    50.585961    50.585961    101.17192 
   50900    26905    301.43018    1043.6007   -2954760.2    24173.408   -2930586.8    259037.35    1.1647317    50.595373    50.595373    101.19075 
[...]
  187600    26905    301.20411   -1371.7723   -2955491.9    24155.278   -2931336.6     253619.5    1.1896128    50.240145    50.240145    100.48029 
  187700    26905    299.54625    351.47094   -2955580.6    24022.326   -2931558.3    253641.81    1.1895082    50.241618    50.241618    100.48324 
  187800    26905     299.0303   -1435.9726   -2955551.2    23980.949   -2931570.3    253536.97    1.1900001    50.234695    50.234695    100.46939 
  187900    26905    300.94251    1683.6599     -2955654      24134.3   -2931519.7    253247.79    1.1913589    50.215588    50.215588    100.43118 
  188000    26905    299.33439    547.06292   -2955467.2    24005.335   -2931461.9    253458.82     1.190367    50.229533    50.229533    100.45907 
  188100    26905    301.40031    248.02865   -2955462.6    24171.013   -2931291.6    253615.57    1.1896313    50.239885    50.239885    100.47977 
  188200    26905    301.94963    -228.8692   -2955302.6    24215.066   -2931087.6    253635.83    1.1895362    50.241223    50.241223    100.48245 
  188300    26905     304.0167    1613.0421   -2955433.2    24380.836   -2931052.4    253273.15    1.1912396    50.217265    50.217265    100.43453 
  188400    26905    299.24702    -823.2006   -2955405.1    23998.328   -2931406.8    253232.48    1.1914309    50.214577    50.214577    100.42915 
  188500    26905    298.80486   -2101.9554   -2955414.4    23962.869   -2931451.5    253223.24    1.1914744    50.213966    50.213966    100.42793 
  188600    26905    299.18779   -1950.6688   -2955362.6    23993.578     -2931369    253477.96    1.1902771    50.230797    50.230797    100.46159 
  188700    26905    300.06747   -459.01176   -2955301.4    24064.125   -2931237.2    253432.96    1.1904884    50.227825    50.227825    100.45565 
  188800    26905    305.06472    1086.2987   -2955508.2    24464.883   -2931043.3    253425.51    1.1905235    50.227332    50.227332    100.45466 
  188900    26905    303.12535   -1029.4335   -2955488.2    24309.354   -2931178.9    253631.29    1.1895575    50.240924    50.240924    100.48185 
  189000    26905    299.21411   -1519.6449   -2955467.9    23995.689   -2931472.2    253929.08    1.1881625    50.260578    50.260578    100.52116 
  189100    26905     298.7303    3078.4444   -2955504.8     23956.89   -2931547.9    254279.28    1.1865261    50.283673    50.283673    100.56735 
  189200    26905    299.91176     237.1099   -2955611.7    24051.638   -2931560.1    254505.55    1.1854712    50.298584    50.298584    100.59717 
  189300    26905    300.70276    1215.8473   -2955532.2    24115.073   -2931417.2    254442.57    1.1857647    50.294434    50.294434    100.58887 
  189400    26905    301.43961    2423.9684   -2955409.9    24174.165   -2931235.7    254330.17    1.1862887    50.287027    50.287027    100.57405 
  189500    26905    302.66342    369.77134   -2955396.7    24272.309   -2931124.4    254409.53    1.1859187    50.292257    50.292257    100.58451 
  189600    26905    299.57935   -1551.0384   -2955208.6     24024.98   -2931183.6    254217.08    1.1868164    50.279573    50.279573    100.55915 
  189700    26905    298.85284   -3946.4861   -2955332.5    23966.717   -2931365.8    254123.71    1.1872525    50.273416    50.273416    100.54683 
  189800    26905    301.00478    -397.9218   -2955570.4    24139.293   -2931431.1    254012.26    1.1877734    50.266066    50.266066    100.53213 
  189900    26905    297.97349    633.90494   -2955470.9    23896.197   -2931574.7    254096.52    1.1873795    50.271623    50.271623    100.54325 
  190000    26905    299.08094   -1796.7782   -2955609.4     23985.01   -2931624.4    254096.61    1.1873791    50.271629    50.271629    100.54326 
  190100    26905    299.98542    623.35337   -2955445.5    24057.545     -2931388    253950.27    1.1880634    50.261976    50.261976    100.52395 
  190200    26905    303.45939   -5.8881635   -2955559.8    24336.142   -2931223.6    254138.29    1.1871844    50.274377    50.274377    100.54875 
  190300    26905    299.90305    156.89799   -2955413.1    24050.939   -2931362.2    254197.13    1.1869096    50.278257    50.278257    100.55651 
  190400    26905     300.5102    1192.5435   -2955630.1     24099.63   -2931530.5     254317.1    1.1863497    50.286166    50.286166    100.57233 
  190500    26905    299.38155   -793.06357   -2955577.1    24009.117   -2931567.9    254163.14    1.1870683    50.276016    50.276016    100.55203 
  190600    26905    299.41845    1199.9466   -2955510.8    24012.076   -2931498.7    253905.15    1.1882745       50.259       50.259      100.518 
  190700    26905    299.41629   -608.50715   -2955395.7    24011.903   -2931383.8    253964.24     1.187998    50.262898    50.262898     100.5258 
  190800    26905    300.84041   -441.45107   -2955484.3    24126.111   -2931358.2    254221.41    1.1867962    50.279858    50.279858    100.55972 
  190900    26905    300.81792   -1872.5686     -2955530    24124.307   -2931405.7    254337.09    1.1862565    50.287483    50.287483    100.57497 
  191000    26905    298.19007    1767.1034   -2955617.3    23913.566   -2931703.8    254005.47    1.1878052    50.265618    50.265618    100.53124 
  191100    26905    298.62489    721.79643   -2955715.2    23948.436   -2931766.8    253826.32    1.1886435    50.253798    50.253798     100.5076 
  191200    26905    299.43698    113.67598   -2955523.7    24013.562   -2931510.1    253527.54    1.1900443    50.234072    50.234072    100.46814 
  191300    26905    300.04658    1993.5381   -2955435.7     24062.45   -2931373.2    253238.11    1.1914045    50.214949    50.214949     100.4299 
  191400    26905    299.28058    540.23961   -2955314.5     24001.02   -2931313.5    253050.46    1.1922879    50.202543    50.202543    100.40509 
  191500    26905    300.39977    457.03706   -2955344.3    24090.774   -2931253.5    252892.08    1.1930346    50.192067    50.192067    100.38413 
  191600    26905    302.45821    1680.4661   -2955503.6    24255.852   -2931247.7    252817.08    1.1933886    50.187104    50.187104    100.37421 
  191700    26905    299.78553   -744.53646   -2955550.7    24041.515   -2931509.2    252967.23    1.1926802    50.197038    50.197038    100.39408 
  191800    26905     299.3215   -344.20193     -2955656    24004.301   -2931651.7    253033.39    1.1923684    50.201413    50.201413    100.40283 
  191900    26905    297.46615   -890.05268   -2955403.6     23855.51   -2931548.1    252981.11    1.1926148    50.197956    50.197956    100.39591 
  192000    26905    302.22874   -1917.2107     -2955519     24237.45   -2931281.5    252959.76    1.1927154    50.196544    50.196544    100.39309 
  192100    26905    300.64356    2516.4305   -2955381.8    24110.325   -2931271.5    253186.24    1.1916485     50.21152     50.21152    100.42304 
  192200    26905    298.88595    253.22684     -2955330    23969.372   -2931360.7    253516.79    1.1900948    50.233362    50.233362    100.46672 
  192300    26905    298.24822    -613.9198   -2955468.2    23918.228   -2931549.9    253768.39    1.1889149    50.249974    50.249974    100.49995 
  192400    26905     297.3571    981.45314   -2955445.3    23846.764   -2931598.5    254228.57    1.1867628     50.28033     50.28033    100.56066 
  192500    26905     300.8874    1088.3652     -2955386    24129.879   -2931256.2    254316.77    1.1863512    50.286144    50.286144    100.57229 
  192600    26905    301.99066   -1050.4489   -2955335.2    24218.356   -2931116.8    254221.21    1.1867972    50.279845    50.279845    100.55969 
  192700    26905    301.54703    1291.3428   -2955417.7    24182.779   -2931234.9    254259.09    1.1866204    50.282342    50.282342    100.56468 
  192800    26905    298.05864     1386.878   -2955379.4    23903.025   -2931476.4    254366.36      1.18612    50.289412    50.289412    100.57882 
  192900    26905    299.32942    167.93012   -2955513.3    24004.937   -2931508.4    254563.56    1.1852011    50.302405    50.302405    100.60481 
  193000    26905    298.60116    854.29019   -2955319.7    23946.533   -2931373.2    254440.52    1.1857742    50.294299    50.294299     100.5886 
  193100    26905    301.82646   -713.03661   -2955412.8    24205.189   -2931207.6    254304.47    1.1864086    50.285333    50.285333    100.57067 
  193200    26905    301.10424   -1187.4859   -2955398.2    24147.269   -2931250.9    254176.93    1.1870039    50.276925    50.276925    100.55385 
  193300    26905    301.24972   -580.86137   -2955489.1    24158.936   -2931330.2    253808.42    1.1887274    50.252616    50.252616    100.50523 
  193400    26905    299.65697    1798.8689   -2955531.1    24031.204   -2931499.9    253630.19    1.1895627    50.240851    50.240851     100.4817 
  193500    26905    297.28683   -615.93141   -2955422.7    23841.129   -2931581.6    253538.68    1.1899921    50.234807    50.234807    100.46961 
  193600    26905    300.46909   -2027.3452   -2955477.7    24096.333   -2931381.4    253485.43     1.190242     50.23129     50.23129    100.46258 
  193700    26905    301.49999    -1407.886   -2955360.7    24179.007   -2931181.7    253431.67    1.1904945    50.227739    50.227739    100.45548 
  193800    26905    300.18674    597.83854   -2955355.8     24073.69   -2931282.1    253639.26    1.1895202    50.241449    50.241449     100.4829 
  193900    26905    298.98972   -1160.5309   -2955404.8    23977.694   -2931427.1    253967.24     1.187984    50.263096    50.263096    100.52619 
  194000    26905    299.42481    649.76281   -2955461.1    24012.587   -2931448.5    254008.99    1.1877887     50.26585     50.26585     100.5317 
  194100    26905    299.83759   -1472.3082   -2955473.1     24045.69   -2931427.4    253845.22     1.188555    50.255045    50.255045    100.51009 
  194200    26905    300.13907    6.3638576   -2955560.2    24069.867   -2931490.4    253459.89     1.190362    50.229604    50.229604    100.45921 
  194300    26905     298.3464    759.43127   -2955563.3    23926.102   -2931637.2    253243.19    1.1913806    50.215284    50.215284    100.43057 
  194400    26905    297.36405   -1756.2362   -2955518.5    23847.322   -2931671.2    253483.96    1.1902489    50.231193    50.231193    100.46239 
  194500    26905    298.69734    286.17768   -2955416.6    23954.247   -2931462.4    253390.74    1.1906868    50.225035    50.225035    100.45007 
  194600    26905    299.71067    2385.0051   -2955298.7    24035.511   -2931263.2    253481.55    1.1902603    50.231034    50.231034    100.46207 
  194700    26905    299.69778   -322.36706   -2955278.9    24034.478   -2931244.5    253738.12    1.1890567    50.247976    50.247976    100.49595 
  194800    26905    299.57682    -291.9703   -2955416.7    24024.777   -2931391.9    254028.87    1.1876957    50.267162    50.267162    100.53432 
  194900    26905    300.37339     -1559.46   -2955601.8    24088.658   -2931513.1    254433.34    1.1858077    50.293826    50.293826    100.58765 
  195000    26905    300.24125    266.90352   -2955513.9    24078.061   -2931435.9    254330.62    1.1862866    50.287057    50.287057    100.57411 
  195100    26905    300.91119    222.79468   -2955485.8    24131.787     -2931354    254047.18    1.1876102    50.268369    50.268369    100.53674 
  195200    26905    301.75341    1503.1502   -2955565.3     24199.33     -2931366    253854.48    1.1885117    50.255656    50.255656    100.51131 
  195300    26905    298.69512    1278.9672   -2955549.4    23954.069   -2931595.3    254093.35    1.1873944    50.271414    50.271414    100.54283 
  195400    26905    300.81888     109.1429     -2955815    24124.385   -2931690.7    253996.64    1.1878465    50.265036    50.265036    100.53007 
  195500    26905    300.72277   -666.52279   -2955641.9    24116.677   -2931525.2    253911.66     1.188244    50.259429    50.259429    100.51886 
  195600    26905    301.08134   -1206.8529   -2955409.1    24145.433   -2931263.7    253658.64    1.1894293    50.242729    50.242729    100.48546 
  195700    26905     300.7842    2076.9411     -2955425    24121.603   -2931303.4    253361.89    1.1908224    50.223129    50.223129    100.44626 
  195800    26905    298.96762    113.17351   -2955421.2    23975.922   -2931445.2    253554.44    1.1899181    50.235849    50.235849     100.4717 
  195900    26905    298.70833   -860.85357   -2955640.4    23955.128   -2931685.2    253792.29    1.1888029    50.251551    50.251551     100.5031 
  196000    26905    298.99871    396.60739   -2955716.9    23978.415   -2931738.5    253944.88    1.1880886    50.261621    50.261621    100.52324 
  196100    26905    297.61597   -311.66518   -2955515.5    23867.525     -2931648    253685.14     1.189305    50.244479    50.244479    100.48896 
  196200    26905    299.12892    209.99076   -2955441.9    23988.857   -2931453.1     253562.8    1.1898788    50.236401    50.236401     100.4728 
  196300    26905    300.06532     1730.582   -2955350.2    24063.953   -2931286.3    253520.88    1.1900756    50.233632    50.233632    100.46726 
  196400    26905    301.66799    915.01797   -2955463.5    24192.479     -2931271    253666.53    1.1893923     50.24325     50.24325     100.4865 
  196500    26905    301.02371   -77.755457   -2955661.7    24140.811   -2931520.9    253918.53    1.1882119    50.259882    50.259882    100.51976 
  196600    26905    298.71683   -1423.0001   -2955680.1    23955.809   -2931724.3    254150.08    1.1871293    50.275155    50.275155    100.55031 
  196700    26905    300.55816      977.305   -2955756.3    24103.477   -2931652.8    254004.85    1.1878081    50.265577    50.265577    100.53115 
  196800    26905    299.15331    843.79217   -2955449.6    23990.813   -2931458.8    254207.39    1.1868617    50.278933    50.278933    100.55787 
  196900    26905     302.0378    466.37648   -2955570.3    24222.137   -2931348.2    254143.26    1.1871612    50.274706    50.274706    100.54941 
  197000    26905    299.86442    1007.9121   -2955404.8    24047.841   -2931356.9    253977.09    1.1879379    50.263745    50.263745    100.52749 
  197100    26905    300.48324   -1357.0157   -2955487.4    24097.468   -2931389.9    254071.52    1.1874964    50.269975    50.269975    100.53995 
  197200    26905     296.5794   -1303.4112   -2955472.9    23784.396   -2931688.5    253977.17    1.1879375    50.263751    50.263751     100.5275 
  197300    26905    298.61102   -172.98696   -2955690.4    23947.324     -2931743    253892.95    1.1883316    50.258194    50.258194    100.51639 
  197400    26905    299.66885   -614.86459   -2955552.4    24032.157   -2931520.3    253740.04    1.1890477    50.248103    50.248103    100.49621 
  197500    26905    298.92901    122.78081   -2955375.2    23972.826   -2931402.4    253611.56    1.1896501     50.23962     50.23962    100.47924 
  197600    26905    300.77506   -1115.7523   -2955482.2    24120.871   -2931361.3    253762.58    1.1889421     50.24959     50.24959    100.49918 
  197700    26905    300.46459    1322.6486     -2955535    24095.972     -2931439    253868.94     1.188444     50.25661     50.25661    100.51322 
  197800    26905    299.62209   -506.07883   -2955579.5    24028.408   -2931551.1    254006.71    1.1877994    50.265699    50.265699     100.5314 
  197900    26905    297.84742     46.73903   -2955731.6    23886.086   -2931845.6    253924.31    1.1881848    50.260264    50.260264    100.52053 
  198000    26905    295.28026   -309.61709   -2955551.8    23680.211   -2931871.5     253697.7    1.1892461    50.245308    50.245308    100.49062 
  198100    26905    297.75837   -437.92046   -2955457.4    23878.945   -2931578.5    253791.21     1.188808     50.25148     50.25148    100.50296 
  198200    26905    300.29121   -3350.0376   -2955512.1    24082.068     -2931430     253819.7    1.1886745     50.25336     50.25336    100.50672 
  198300    26905    300.74031   -328.78953   -2955419.5    24118.084   -2931301.4    253772.73    1.1888945    50.250261    50.250261    100.50052 
  198400    26905    299.13019    1979.4606   -2955208.8    23988.959   -2931219.8    253462.66     1.190349    50.229786    50.229786    100.45957 
  198500    26905    301.72982     3057.931     -2955350    24197.438   -2931152.5    253557.58    1.1899033    50.236056    50.236056    100.47211 
  198600    26905    299.79711    1400.0156   -2955184.6    24042.444   -2931142.2    253483.05    1.1902532    50.231133    50.231133    100.46227 
  198700    26905    301.25599     -1422.99   -2955517.1    24159.439   -2931357.7    253388.09    1.1906993     50.22486     50.22486    100.44972 
  198800    26905    299.39155    455.90582   -2955562.1    24009.919   -2931552.2    253359.31    1.1908345    50.222958    50.222958    100.44592 
  198900    26905    299.94754    1046.4881   -2955571.8    24054.507   -2931517.3    253230.35     1.191441    50.214436    50.214436    100.42887 
  199000    26905    302.75047    1003.5267   -2955613.2     24279.29   -2931333.9    253137.68    1.1918771     50.20831     50.20831    100.41662 
  199100    26905    303.43112    3874.0706   -2955386.3    24333.875   -2931052.5    253148.43    1.1918265    50.209021    50.209021    100.41804 
  199200    26905    302.53351   -1409.1565   -2955296.3    24261.891   -2931034.4    253523.91    1.1900614    50.233832    50.233832    100.46766 
  199300    26905    298.46605   -2701.9588   -2955375.6    23935.698   -2931439.9    253612.53    1.1896455    50.239684    50.239684    100.47937 
  199400    26905    297.50713   -363.45788   -2955374.9    23858.797   -2931516.1     253692.2    1.1892719    50.244945    50.244945    100.48989 
  199500    26905    300.24891   -289.41006   -2955534.8    24078.676   -2931456.2    253679.45    1.1893317    50.244103    50.244103    100.48821 
  199600    26905    298.85495    583.77875   -2955410.9    23966.886     -2931444    253525.22    1.1900552    50.233919    50.233919    100.46784 
  199700    26905     299.0639   -379.09524   -2955487.3    23983.643   -2931503.6    253541.44    1.1899791     50.23499     50.23499    100.46998 
  199800    26905    301.35483    657.48373   -2955569.1    24167.365   -2931401.7    253509.67    1.1901282    50.232892    50.232892    100.46578 
  199900    26905    299.91279   -1626.9557   -2955332.3     24051.72   -2931280.5    253454.92    1.1903853    50.229275    50.229275    100.45855 
  200000    26905    300.39349    1.3998619   -2955369.3     24090.27   -2931279.1    253300.07     1.191113    50.219043    50.219043    100.43809 
Loop time of 56803.2 on 28 procs for 200000 steps with 26905 atoms

Performance: 0.076 ns/day, 315.573 hours/ns, 3.521 timesteps/s
99.8% CPU use with 28 MPI tasks x no OpenMP threads

MPI task timing breakdown:
Section |  min time  |  avg time  |  max time  |%varavg| %total
---------------------------------------------------------------
Pair    | 38334      | 41300      | 42624      | 459.9 | 72.71
Neigh   | 2895.2     | 3093.6     | 3192.1     | 161.8 |  5.45
Comm    | 151.05     | 1461.2     | 4460.1     |2445.4 |  2.57
Output  | 1.2485     | 1.2503     | 1.2701     |   0.3 |  0.00
Modify  | 10836      | 10941      | 11133      |  86.3 | 19.26
Other   |            | 5.624      |            |       |  0.01

Nlocal:    960.893 ave 1024 max 846 min
Histogram: 1 2 0 0 0 8 4 5 5 3
Nghost:    11701.9 ave 11952 max 11357 min
Histogram: 1 2 3 2 5 2 1 3 3 6
Neighs:    950697 ave 1.03552e+06 max 786667 min
Histogram: 2 0 1 0 1 4 7 5 6 2

Total # of neighbors = 26619525
Ave neighs/atom = 989.39
Neighbor list builds = 20000
Dangerous builds not checked
write_restart	restart.npt_equi
unfix npt_equi
#unfix bd
undump npt_dump


Please see the log.cite file for references relevant to this simulation

Total wall time: 15:47:52
