LAMMPS (2 Aug 2019)
# lammps code to equilibrate pmma system
# method adopted from the paper "Toughening of graphene based polymer nanocomposite via tuning chemical functionalization"
# after equilibration create crack and perform tension test
# pmma pnc system has been functionalized
# cnt is functionalized with -OH group (hydrogen bonding)

units		real
atom_style 	charge
boundary 	p p p
read_data       pmma_pnc_funct.data
  orthogonal box = (-2.80468 -0.154592 5.44312) to (47.1953 49.8454 105.443)
  2 by 2 by 7 MPI processor grid
  reading atoms ...
  26767 atoms
  read_data CPU = 0.0492699 secs

pair_style	reax/c control_file lgvdw yes
pair_coeff	* * ffield.reax.lg C C H O H C C C O O C C
Reading potential file ffield.reax.lg with DATE: 2012-01-06

neighbor	4 bin
neigh_modify	every 10 delay 0 check no

thermo 100
thermo_style custom step atoms temp press pe ke etotal vol density lx ly lz      #output variables

fix std all qeq/reax 1 0.0 10.0 1e-6 reax/c
min_style	 cg							#conjugate gradient minimization
minimize	 1.0e-6 1.0e-8 10000 100000
WARNING: Using 'neigh_modify every 1 delay 0 check yes' setting during minimization (../min.cpp:168)
Neighbor list info ...
  update every 1 steps, delay 0 steps, check yes
  max neighbors/atom: 2000, page size: 100000
  master list distance cutoff = 14
  ghost atom cutoff = 14
  binsize = 7, bins = 8 8 15
  2 neighbor lists, perpetual/occasional/extra = 2 0 0
  (1) pair reax/c, perpetual
      attributes: half, newton off, ghost
      pair build: half/bin/newtoff/ghost
      stencil: half/ghost/bin/3d/newtoff
      bin: standard
  (2) fix qeq/reax, perpetual, copy from (1)
      attributes: half, newton off, ghost
      pair build: copy
      stencil: none
      bin: none
Per MPI rank memory allocation (min/avg/max) = 280.6 | 283.8 | 287.1 Mbytes
Step Atoms Temp Press PotEng KinEng TotEng Volume Density Lx Ly Lz 
       0    26767            0    297354.55     -2817917            0     -2817917       250000    1.1990414           50           50          100 
      37    26767            0    7554.5565   -2953557.4            0   -2953557.4       250000    1.1990414           50           50          100 
Loop time of 39.2234 on 28 procs for 37 steps with 26767 atoms

99.7% CPU use with 28 MPI tasks x no OpenMP threads

Minimization stats:
  Stopping criterion = energy tolerance
  Energy initial, next-to-last, final = 
        -2817916.97046     -2953557.28351     -2953557.44636
  Force two-norm initial, final = 38736.6 2892.45
  Force max component initial, final = 870.258 322.539
  Final line search alpha, max atom move = 0.000165761 0.0534643
  Iterations, force evaluations = 37 119

MPI task timing breakdown:
Section |  min time  |  avg time  |  max time  |%varavg| %total
---------------------------------------------------------------
Pair    | 24.866     | 25.6       | 26.143     |   6.8 | 65.27
Neigh   | 0          | 0          | 0          |   0.0 |  0.00
Comm    | 0.079328   | 0.62693    | 1.357      |  43.7 |  1.60
Output  | 0          | 0          | 0          |   0.0 |  0.00
Modify  | 12.969     | 12.974     | 12.979     |   0.1 | 33.08
Other   |            | 0.02271    |            |       |  0.06

Nlocal:    955.964 ave 997 max 907 min
Histogram: 2 1 1 3 5 4 1 8 2 1
Nghost:    11798.4 ave 11944 max 11688 min
Histogram: 4 2 4 3 4 3 2 4 1 1
Neighs:    951575 ave 1.00278e+06 max 891463 min
Histogram: 1 3 0 4 4 4 5 3 3 1

Total # of neighbors = 26644104
Ave neighs/atom = 995.409
Neighbor list builds = 0
Dangerous builds not checked


#set of equilibrations to reduce the energy of the system

reset_timestep 0
timestep 0.25
fix npt_equi all npt temp 300.0 300.0 25.0 iso 1.0 1.0 250.0
fix bd all reax/c/bonds 500 bonds.reaxc_eqbn
dump npt_dump all custom 500 dump.npt id type x y z
run 200000
Per MPI rank memory allocation (min/avg/max) = 285.2 | 288.4 | 291.7 Mbytes
Step Atoms Temp Press PotEng KinEng TotEng Volume Density Lx Ly Lz 
       0    26767            0    7554.5598   -2953557.4            0   -2953557.4       250000    1.1990414           50           50          100 
     100    26767    66.786402   -5921.4324   -2958427.2    5328.5104   -2953098.7    249906.88    1.1994882    49.993791    49.993791    99.987582 
     200    26767    86.255207     1346.884   -2958764.2    6881.8167   -2951882.4    246663.25    1.2152615    49.776553    49.776553    99.553105 
     300    26767    98.583894   -1020.7998   -2958051.8    7865.4531   -2950186.4    245071.81    1.2231532    49.669271    49.669271    99.338542 
     400    26767    110.29582   -1554.7819   -2957041.9    8799.8813     -2948242    245498.94    1.2210251     49.69811     49.69811     99.39622 
     500    26767    133.62605   -2081.3914   -2956570.5    10661.269   -2945909.2    246079.33    1.2181452    49.737243    49.737243    99.474487 
     600    26767    154.51453    -1114.345   -2955559.4    12327.843   -2943231.5    245239.01    1.2223192    49.680564    49.680564    99.361129 
     700    26767    169.58069    2314.7328   -2953784.3    13529.888   -2940254.4    245095.58    1.2230345    49.670877    49.670877    99.341754 
     800    26767    194.30985    2855.0207   -2952558.8    15502.888   -2937055.9    246920.16    1.2139971    49.793828    49.793828    99.587656 
     900    26767    213.38329   -111.69486   -2950652.3     17024.65   -2933627.7    249270.94    1.2025483    49.951349    49.951349    99.902698 
    1000    26767    239.77093    2772.7367   -2949223.4    19129.971   -2930093.4    251059.87    1.1939796    50.070558    50.070558    100.14112 
    1100    26767    258.87602   -1227.8242   -2947264.7    20654.258   -2926610.4    252784.65    1.1858329    50.184958    50.184958    100.36992 
    1200    26767    283.73668    1150.6052   -2946034.8     22637.75   -2923397.1    254685.48    1.1769825    50.310434    50.310434    100.62087 
    1300    26767    295.84486    1990.7115   -2944341.5    23603.793   -2920737.7    256109.35    1.1704389    50.404017    50.404017    100.80803 
    1400    26767    303.87208   -257.24115   -2943100.1     24244.24   -2918855.9     257659.8    1.1633959    50.505525    50.505525    101.01105 
    1500    26767     303.9502    1777.1755   -2942136.4    24250.473     -2917886    259525.06    1.1550344    50.627106    50.627106    101.25421 
    1600    26767    303.98223    899.24824   -2941893.9    24253.028   -2917640.9    261555.94     1.146066    50.758821    50.758821    101.51764 
    1700    26767    299.14287    2101.3966   -2941867.5    23866.923   -2918000.6    262928.95    1.1400812    50.847484    50.847484    101.69497 
    1800    26767    297.29512    976.74591   -2941981.9    23719.502   -2918262.4    264514.98    1.1332453    50.949519    50.949519    101.89904 
    1900    26767    300.84971   -778.06131   -2942154.4    24003.102   -2918151.3    266033.12    1.1267783    51.046806    51.046806    102.09361 
    2000    26767    302.78344    1016.9653   -2942327.2    24157.383   -2918169.8    267280.69    1.1215189    51.126477    51.126477    102.25295 
    2100    26767    300.16101    740.48784   -2942479.4    23948.155   -2918531.3    268739.12    1.1154325    51.219299    51.219299     102.4386 
    2200    26767    295.53636    2753.8528   -2942490.5     23579.18   -2918911.3    270593.48    1.1077886    51.336837    51.336837    102.67367 
    2300    26767    296.88888    846.54598     -2942402     23687.09     -2918715    272686.98    1.0992837     51.46889     51.46889    102.93778 
    2400    26767    302.93347    429.69335   -2942209.9    24169.353   -2918040.6    274502.77    1.0920122    51.582879    51.582879    103.16576 
    2500    26767    299.94638    1992.5489   -2941599.8     23931.03   -2917668.8    275684.47    1.0873313    51.656792    51.656792    103.31358 
    2600    26767    300.46509    796.78071   -2941490.3    23972.416   -2917517.9    277163.56    1.0815287     51.74901     51.74901    103.49802 
    2700    26767    300.01517    763.11974     -2941510    23936.519   -2917573.5    278951.41     1.074597    51.860041    51.860041    103.72008 
    2800    26767    297.94859    665.60449   -2941361.6    23771.638     -2917590    280591.14    1.0683172    51.961457    51.961457    103.92291 
    2900    26767    299.73387    736.12666   -2941298.6    23914.076   -2917384.5    282217.24    1.0621617    52.061641    52.061641    104.12328 
    3000    26767    302.22778     1309.156     -2941206    24113.051     -2917093    283635.13     1.056852    52.148682    52.148682    104.29736 
    3100    26767    298.35504   -1178.6719   -2940795.4    23804.066   -2916991.3    285293.06    1.0507103    52.250094    52.250094    104.50019 
    3200    26767    302.67244   -221.63479   -2940870.7    24148.528   -2916722.1    286802.79    1.0451794    52.342098    52.342098     104.6842 
    3300    26767    304.07907   -473.36457     -2940923    24260.754   -2916662.2    288083.22    1.0405339    52.419876    52.419876    104.83975 
    3400    26767    299.43788   -1509.1404   -2940930.1     23890.46   -2917039.6    289062.98    1.0370071    52.479235    52.479235    104.95847 
    3500    26767    298.87463   -934.37382   -2941136.9    23845.522   -2917291.4    290058.42    1.0334482    52.539406    52.539406    105.07881 
    3600    26767    297.84299    839.42859   -2941075.8    23763.213   -2917312.6    290299.48      1.03259    52.553957    52.553957    105.10791 
    3700    26767    301.30726    868.18646   -2941167.1    24039.608   -2917127.5    290452.22     1.032047    52.563173    52.563173    105.12635 
    3800    26767    299.19144   -1542.1406     -2940965    23870.798   -2917094.2    290632.51    1.0314068    52.574046    52.574046    105.14809 
    3900    26767    301.56359   -653.45211   -2941025.1    24060.059   -2916965.1    290320.59     1.032515    52.555231    52.555231    105.11046 
    4000    26767    302.05266    348.88334   -2941018.7    24099.079   -2916919.6    289818.73    1.0343029     52.52493     52.52493    105.04986 
    4100    26767    299.22972   -397.78035   -2941069.7    23873.852   -2917195.8    289547.97    1.0352701    52.508568    52.508568    105.01714 
    4200    26767    299.57113    1389.2977     -2941290    23901.091   -2917388.9    289123.26    1.0367909    52.482882    52.482882    104.96576 
    4300    26767    299.16584    -329.2194     -2941205    23868.756   -2917336.2    288523.84    1.0389449    52.446587    52.446587    104.89317 
    4400    26767    300.72224    385.26176   -2941119.3    23992.932   -2917126.4    288042.14    1.0406823    52.417384    52.417384    104.83477 
    4500    26767    302.38617    221.39243   -2941094.3    24125.688   -2916968.6    287562.24     1.042419    52.388258    52.388258    104.77652 
    4600    26767     302.5466   -561.35772   -2941170.5    24138.488     -2917032    286755.76    1.0453508    52.339237    52.339237    104.67847 
    4700    26767    298.89386    801.97719     -2941180    23847.056   -2917332.9    285772.94    1.0489459    52.279373    52.279373    104.55875 
    4800    26767    299.23051   -2087.8066   -2941399.2    23873.915   -2917525.2    285146.72    1.0512495    52.241158    52.241158    104.48232 
    4900    26767    299.58836   -1603.8048   -2941482.9    23902.466   -2917580.4    284306.09    1.0543579    52.189771    52.189771    104.37954 
    5000    26767    300.58655   -690.87387   -2941550.4    23982.106   -2917568.3    284209.84    1.0547149    52.183881    52.183881    104.36776 
    5100    26767    299.35875     586.5182   -2941398.7    23884.146   -2917514.6    284242.06    1.0545954    52.185852    52.185852     104.3717 
    5200    26767    303.09455    1150.9484   -2941526.5    24182.205   -2917344.3    284140.02    1.0549741    52.179607    52.179607    104.35921 
    5300    26767    301.20908    1297.5599   -2941506.7    24031.774   -2917474.9     284567.5    1.0533893    52.205762    52.205762    104.41152 
    5400    26767    298.65809     1257.067   -2941474.7    23828.245   -2917646.5    285078.55    1.0515009    52.236995    52.236995    104.47399 
    5500    26767     300.0414    691.63089   -2941477.9    23938.612   -2917539.3     285681.8    1.0492806    52.273814    52.273814    104.54763 
    5600    26767    299.93746    1353.7052   -2941376.8    23930.319   -2917446.5    286437.86     1.046511    52.319888    52.319888    104.63978 
    5700    26767     300.0736   -227.92012   -2941211.9    23941.181   -2917270.8    286933.22    1.0447042    52.350032    52.350032    104.70006 
    5800    26767     302.7172   -135.29776   -2941290.2    24152.099   -2917138.1    287244.47    1.0435722    52.368954    52.368954    104.73791 
    5900    26767    298.44806    61.630781     -2941117    23811.488   -2917305.5    287631.76    1.0421671    52.392479    52.392479    104.78496 
    6000    26767    297.96688   -422.05423   -2941024.9    23773.097   -2917251.8    288229.12    1.0400072    52.428724    52.428724    104.85745 
    6100    26767     300.7973    207.08607   -2940873.7    23998.921   -2916874.8    288809.13    1.0379186    52.463868    52.463868    104.92774 
    6200    26767    303.42735    373.94056   -2940824.9    24208.758   -2916616.1    289294.21    1.0361782    52.493224    52.493224    104.98645 
    6300    26767    300.90858   -641.98378   -2940843.1    24007.799   -2916835.3    289283.21    1.0362176    52.492559    52.492559    104.98512 
    6400    26767    297.54135      828.605   -2940931.1    23739.147     -2917192     289254.5    1.0363205    52.490822    52.490822    104.98164 
    6500    26767    299.95677   -959.38932   -2941158.9     23931.86   -2917227.1    289623.43    1.0350004     52.51313     52.51313    105.02626 
    6600    26767    300.74712    362.37732   -2941146.5    23994.917   -2917151.5     289725.1    1.0346372    52.519274    52.519274    105.03855 
    6700    26767    301.19766    103.71798   -2941210.9    24030.863     -2917180    289445.54    1.0356365    52.502376    52.502376    105.00475 
    6800    26767    296.59547    292.75733   -2940976.7     23663.68     -2917313    289049.74    1.0370546    52.478433    52.478433    104.95687 
    6900    26767      302.036   -1882.2496   -2941211.1     24097.75   -2917113.3    288449.23    1.0392136    52.442066    52.442066    104.88413 
    7000    26767    298.80006   -266.18072   -2941003.4    23839.572   -2917163.8    287658.94    1.0420686    52.394129    52.394129    104.78826 
    7100    26767    297.28105   -2.7632913   -2940951.3    23718.379     -2917233    287106.64    1.0440732    52.360576    52.360576    104.72115 
    7200    26767    301.32357    105.62085   -2941136.9    24040.909     -2917096    286343.94    1.0468542    52.314169    52.314169    104.62834 
    7300    26767    302.14718   -695.15324   -2941204.7     24106.62   -2917098.1    285946.07    1.0483108    52.289928    52.289928    104.57986 
    7400    26767    300.94192   -1211.6739   -2941423.2    24010.459   -2917412.7    285525.24    1.0498559    52.264264    52.264264    104.52853 
    7500    26767    294.51702    1210.7724   -2941337.2    23497.853   -2917839.4    284762.18    1.0526691    52.217664    52.217664    104.43533 
    7600    26767    299.31075    1246.5584   -2941654.8    23880.317   -2917774.5    284024.03    1.0554049    52.172506    52.172506    104.34501 
    7700    26767     302.4102      466.123   -2941673.2    24127.605   -2917545.6    283508.37    1.0573245    52.140913    52.140913    104.28183 
    7800    26767    300.48739    -752.8065   -2941557.7    23974.195   -2917583.5    282752.16    1.0601523    52.094512    52.094512    104.18902 
    7900    26767    301.25603   -358.66911   -2941843.3     24035.52   -2917807.8    281998.76    1.0629846    52.048203    52.048203    104.09641 
    8000    26767    298.22019    950.19185     -2941892    23793.308   -2918098.7    282086.52    1.0626539    52.053601    52.053601     104.1072 
    8100    26767    298.02265    1998.8166   -2941924.9    23777.547   -2918147.4     282048.4    1.0627976    52.051256    52.051256    104.10251 
    8200    26767    298.31481    1282.9081   -2941688.5    23800.857   -2917887.6    281774.32    1.0638313    52.034391    52.034391    104.06878 
    8300    26767    301.25134    540.75921   -2941514.2    24035.146   -2917479.1     281531.8    1.0647478    52.019458    52.019458    104.03892 
    8400    26767    301.89939    428.13913   -2941384.7     24086.85   -2917297.9    281400.09    1.0652461    52.011344    52.011344    104.02269 
    8500    26767    299.52484   -1658.9381     -2941335    23897.398   -2917437.6    281070.01    1.0664971       51.991       51.991      103.982 
    8600    26767    298.91219    1439.7059   -2941467.7    23848.518   -2917619.2    280974.91    1.0668581    51.985136    51.985136    103.97027 
    8700    26767    298.07703      816.407   -2941536.4    23781.886   -2917754.5    281064.17    1.0665193     51.99064     51.99064    103.98128 
    8800    26767    300.26089   -865.02624   -2941688.4    23956.123   -2917732.3    280827.57    1.0674178    51.976047    51.976047    103.95209 
    8900    26767    297.89754   -1114.5263   -2941521.4    23767.565   -2917753.8    280585.02    1.0683405    51.961079    51.961079    103.92216 
    9000    26767    300.83543   -643.19799   -2941827.4    24001.963   -2917825.4    280681.43    1.0679736     51.96703     51.96703    103.93406 
    9100    26767    299.95133    88.213572   -2941823.3    23931.426   -2917891.9    281080.09    1.0664589    51.991622    51.991622    103.98324 
    9200    26767    296.43385      636.243   -2941523.2    23650.785   -2917872.4     281412.1    1.0652007    52.012084    52.012084    104.02417 
    9300    26767     299.7105   -242.43204   -2941464.4    23912.211   -2917552.2    281545.84    1.0646947    52.020323    52.020323    104.04065 
    9400    26767    302.71842     464.3868   -2941470.8    24152.196   -2917318.6    281546.78    1.0646911     52.02038     52.02038    104.04076 
    9500    26767    300.22482     1645.043   -2941363.8    23953.245   -2917410.6    281683.44    1.0641746    52.028796    52.028796    104.05759 
    9600    26767    300.51582   -1045.5279   -2941565.7    23976.463   -2917589.2    282027.39    1.0628767    52.049964    52.049964    104.09993 
    9700    26767    300.29377   -2250.2795   -2941774.7    23958.747     -2917816    282241.04    1.0620722    52.063104    52.063104    104.12621 
    9800    26767    298.09786   -1481.2418   -2941718.6    23783.547   -2917935.1    281959.05    1.0631344    52.045759    52.045759    104.09152 
    9900    26767    299.68356    162.67098   -2941727.7    23910.061   -2917817.7    281714.22    1.0640583     52.03069     52.03069    104.06138 
   10000    26767    300.14962   -1173.6966     -2941527    23947.246   -2917579.7    281436.63    1.0651078    52.013595    52.013595    104.02719 
   10100    26767    302.56451     1013.179   -2941606.7    24139.916   -2917466.8    281000.99    1.0667591    51.986744    51.986744    103.97349 
   10200    26767     299.3981   -404.60993   -2941564.8    23887.287   -2917677.5    280959.69    1.0669159    51.984197    51.984197    103.96839 
   10300    26767    297.17772   -1193.0404   -2941579.8    23710.135   -2917869.6    281239.52    1.0658543    52.001449    52.001449     104.0029 
   10400    26767     299.0475   -266.81702   -2941554.6    23859.314   -2917695.3    281061.54    1.0665292    51.990478    51.990478    103.98096 
   10500    26767    302.08841    459.14851   -2941480.8    24101.931   -2917378.9     280638.4    1.0681374    51.964374    51.964374    103.92875 
   10600    26767    300.30477     866.8961   -2941358.2    23959.624   -2917398.5    280287.86    1.0694732    51.942729    51.942729    103.88546 
   10700    26767    301.39233   -1118.5641   -2941637.2    24046.395   -2917590.8    279904.79    1.0709369    51.919055    51.919055    103.83811 
   10800    26767    297.18015    -663.6784   -2941556.1    23710.328   -2917845.8    279441.34     1.072713    51.890384    51.890384    103.78077 
   10900    26767    298.33968    1086.9427   -2941682.9    23802.841     -2917880    279478.31    1.0725711    51.892672    51.892672    103.78534 
   11000    26767    301.10565   -795.63464   -2941732.7    24023.522   -2917709.1    279874.96     1.071051     51.91721     51.91721    103.83442 
   11100    26767    301.15513    671.24009   -2941521.7     24027.47   -2917494.3    280373.12     1.069148    51.947995    51.947995    103.89599 
   11200    26767    302.10474   -569.42311   -2941586.7    24103.234   -2917483.4    280798.37    1.0675288    51.974246    51.974246    103.94849 
   11300    26767    299.93666    303.40361   -2941565.4    23930.255   -2917635.1    280587.33    1.0683318    51.961222    51.961222    103.92244 
   11400    26767    300.04113   -2544.1713   -2941739.5     23938.59   -2917800.9     280257.4    1.0695895    51.940847    51.940847    103.88169 
   11500    26767    298.89235    244.73256   -2941832.1    23846.935   -2917985.1    279621.21     1.072023    51.901515    51.901515    103.80303 
   11600    26767    296.91069    947.83937   -2941651.4     23688.83   -2917962.5    279176.44    1.0737309    51.873982    51.873982    103.74796 
   11700    26767    301.64984    609.58642   -2941736.6     24066.94   -2917669.6    278946.14    1.0746173    51.859714    51.859714    103.71943 
   11800    26767    303.36251   -1667.6581   -2941713.7    24203.584   -2917510.1    278593.97    1.0759757    51.837881    51.837881    103.67576 
   11900    26767    300.71509       1870.5   -2941789.6    23992.362   -2917797.3    277954.38    1.0784516    51.798181    51.798181    103.59636 
   12000    26767    297.71902   -815.97233   -2942001.2    23753.322   -2918247.9    277707.85     1.079409    51.782862    51.782862    103.56572 
   12100    26767    298.04933    -679.6754   -2942208.9    23779.675   -2918429.2    277611.99    1.0797817    51.776904    51.776904    103.55381 
   12200    26767    297.63603   -1295.1689   -2942051.7      23746.7     -2918305    277511.24    1.0801737    51.770639    51.770639    103.54128 
   12300    26767    301.26232   -138.56557   -2941958.5    24036.022   -2917922.5    277357.89     1.080771    51.761101    51.761101     103.5222 
   12400    26767    304.95437    -1498.865   -2942066.9     24330.59   -2917736.3    277312.05    1.0809496     51.75825     51.75825     103.5165 
   12500    26767    300.56381   -619.05246   -2942026.4    23980.292   -2918046.1    277365.22    1.0807424    51.761557    51.761557    103.52311 
   12600    26767    298.86975   -514.37992   -2942169.5    23845.132   -2918324.4    277364.29     1.080746    51.761499    51.761499      103.523 
   12700    26767    297.96593   -354.17727   -2942166.1    23773.022   -2918393.1    277093.19    1.0818034     51.74463     51.74463    103.48926 
   12800    26767    300.08468   -494.77797   -2942051.6    23942.065   -2918109.6    276709.41    1.0833038     51.72073     51.72073    103.44146 
   12900    26767    303.06429   -186.39832   -2941999.4    24179.791   -2917819.6    276338.04    1.0847596    51.697582    51.697582    103.39516 
   13000    26767    303.10654   -465.44103   -2942077.7    24183.162   -2917894.6    276021.27    1.0860046     51.67782     51.67782    103.35564 
   13100    26767    297.24473    3.7424086   -2941943.5    23715.481     -2918228    275738.21    1.0871194    51.660149    51.660149     103.3203 
   13200    26767    297.62509    -1298.714   -2942006.4    23745.828   -2918260.6    275867.84    1.0866086    51.668243    51.668243    103.33649 
   13300    26767    301.19222   -1563.3207   -2941976.9    24030.429   -2917946.4    275687.02    1.0873213    51.656952    51.656952     103.3139 
   13400    26767    303.17401   -183.74341     -2942034    24188.545   -2917845.4    275339.35    1.0886942    51.635228    51.635228    103.27046 
   13500    26767    299.54294   -1454.0922   -2942071.4    23898.842   -2918172.6    275126.97    1.0895346    51.621948    51.621948     103.2439 
   13600    26767    297.11904    449.65542     -2942175    23705.453   -2918469.5    274611.96     1.091578    51.589717    51.589717    103.17943 
   13700    26767    299.27573   -914.71698   -2942306.3    23877.523   -2918428.8    274226.94    1.0931105    51.565596    51.565596    103.13119 
   13800    26767    300.97317   -1858.6569   -2942183.9    24012.953   -2918170.9    273912.47    1.0943655    51.545878    51.545878    103.09176 
   13900    26767    301.93613    1280.4542   -2942002.2    24089.781   -2917912.4    273868.44    1.0945414    51.543115    51.543115    103.08623 
   14000    26767    302.63421   -328.52637   -2942014.2    24145.477   -2917868.8    273854.59    1.0945968    51.542247    51.542247    103.08449 
   14100    26767    300.69571    201.88093   -2942125.7    23990.815   -2918134.9    273748.65    1.0950204    51.535599    51.535599     103.0712 
   14200    26767    298.88872    345.63365   -2942360.7    23846.646   -2918514.1    273857.65    1.0945846    51.542439    51.542439    103.08488 
   14300    26767    297.78081   -1539.4747   -2942522.1    23758.252   -2918763.8    273997.83    1.0940246    51.551231    51.551231    103.10246 
   14400    26767    296.26404    236.48507   -2942332.6    23637.237   -2918695.4    273613.42    1.0955616    51.527112    51.527112    103.05422 
   14500    26767    300.66985    133.80211   -2942266.2    23988.752   -2918277.4     273737.2    1.0950662    51.534881    51.534881    103.06976 
   14600    26767    303.78623   -2820.0662   -2942237.6     24237.39   -2918000.2    274031.24    1.0938912    51.553326    51.553326    103.10665 
   14700    26767    302.82742    1576.2764     -2942317    24160.892   -2918156.1    273979.36    1.0940983    51.550073    51.550073    103.10015 
   14800    26767    298.68009    866.65769   -2942453.4        23830   -2918623.4    273809.45    1.0947773    51.539414    51.539414    103.07883 
   14900    26767    295.47849    2019.3778   -2942502.4    23574.562   -2918927.8    273538.69    1.0958609     51.52242     51.52242    103.04484 
   15000    26767    299.46297    493.00346   -2942634.7    23892.462   -2918742.2    273477.25    1.0961071    51.518562    51.518562    103.03712 
   15100    26767    298.31824     2142.874   -2942175.9     23801.13   -2918374.8    273306.32    1.0967926    51.507827    51.507827    103.01565 
   15200    26767    304.59627   -434.16246   -2942350.9    24302.019   -2918048.9    273155.59    1.0973979    51.498356    51.498356    102.99671 
   15300    26767    302.54018    1558.0451   -2942363.9    24137.975   -2918225.9    272943.53    1.0982504    51.485026    51.485026    102.97005 
   15400    26767    297.78485    814.54222   -2942448.3    23758.574   -2918689.7    273019.03    1.0979468    51.489773    51.489773    102.97955 
   15500    26767    297.46115    1377.2053   -2942629.1    23732.748   -2918896.3    273130.73    1.0974977    51.496794    51.496794    102.99359 
   15600    26767     297.9538    1245.3193   -2942437.8    23772.054   -2918665.7    273164.11    1.0973636    51.498892    51.498892    102.99778 
   15700    26767    302.23764    -134.1704     -2942352    24113.837   -2918238.1    273207.94    1.0971876    51.501645    51.501645    103.00329 
   15800    26767    302.23678   -681.54308   -2942164.5    24113.768   -2918050.7    273624.77    1.0955161    51.527824    51.527824    103.05565 
   15900    26767    302.16338   -2101.5058   -2942346.3    24107.912   -2918238.4    273759.05    1.0949788    51.536252    51.536252     103.0725 
   16000    26767     295.7921   -666.94655   -2942264.1    23599.584   -2918664.5    273619.18    1.0955385    51.527473    51.527473    103.05495 
   16100    26767    298.30875   -3794.2365   -2942520.3    23800.373   -2918719.9    273520.03    1.0959357    51.521249    51.521249     103.0425 
   16200    26767    300.12137   -1522.8458   -2942458.3    23944.992   -2918513.3    273216.95    1.0971514    51.502212    51.502212    103.00442 
   16300    26767     302.1052    2935.1328     -2942420     24103.27   -2918316.7    272752.35    1.0990202    51.473003    51.473003    102.94601 
   16400    26767    299.63891    2088.9707     -2942264    23906.499   -2918357.5       272690    1.0992715     51.46908     51.46908    102.93816 
   16500    26767    300.69441   -835.95818   -2942646.9    23990.712   -2918656.2    272458.55    1.1002054    51.454514    51.454514    102.90903 
   16600    26767    299.13191    1863.0196   -2942864.5    23866.048   -2918998.4    271996.87    1.1020728    51.425435    51.425435    102.85087 
   16700    26767    298.31331   -1173.9958     -2942895    23800.737   -2919094.3    271551.87    1.1038788    51.397374    51.397374    102.79475 
   16800    26767    299.96869    676.72555   -2942857.6    23932.811   -2918924.8    271281.56    1.1049788    51.380314    51.380314    102.76063 
   16900    26767    301.20906    704.13012   -2942669.3    24031.773   -2918637.6    270925.52    1.1064309    51.357827    51.357827    102.71565 
   17000    26767     302.2436   -480.79269   -2942552.2    24114.313   -2918437.9    270470.23    1.1082934    51.329042    51.329042    102.65808 
   17100    26767    300.71505    688.93188   -2942440.5    23992.358   -2918448.1    270310.29    1.1089491    51.318922    51.318922    102.63784 
   17200    26767    300.43288    -130.4429   -2942551.2    23969.846   -2918581.4       270479    1.1082574    51.329596    51.329596    102.65919 
   17300    26767    300.85046    749.32546   -2942803.4    24003.162   -2918800.3    270445.15    1.1083961    51.327455    51.327455    102.65491 
   17400    26767    298.80011    164.08986   -2942794.2    23839.576   -2918954.7    270141.76    1.1096409    51.308255    51.308255    102.61651 
   17500    26767    299.42178   -1363.5584     -2942691    23889.176   -2918801.9    269586.03    1.1119284    51.273047    51.273047    102.54609 
   17600    26767     300.2682    1747.5974   -2942530.8    23956.706     -2918574    269135.13    1.1137912    51.244446    51.244446    102.48889 
   17700    26767    303.30097    966.13543   -2942715.2    24198.674   -2918516.5    268839.57    1.1150158     51.22568     51.22568    102.45136 
   17800    26767    301.05343   -994.75551   -2942774.2    24019.355   -2918754.9    268615.68    1.1159451    51.211456    51.211456    102.42291 
   17900    26767    296.84592     563.2801   -2942672.7    23683.663     -2918989    268221.62    1.1175846    51.186401    51.186401     102.3728 
   18000    26767    298.26737   -2050.2006   -2942669.8    23797.072   -2918872.8    267953.63    1.1187023    51.169348    51.169348     102.3387 
   18100    26767    302.26386    1459.1831   -2942700.2    24115.929   -2918584.3    267935.88    1.1187765    51.168218    51.168218    102.33644 
   18200    26767    302.07395    -192.4015   -2942659.7    24100.777   -2918558.9    268102.99    1.1180791    51.178854    51.178854    102.35771 
   18300    26767    300.34061    902.79717     -2942771    23962.484   -2918808.5    268027.73    1.1183931    51.174064    51.174064    102.34813 
   18400    26767     298.8595   -1661.8692     -2942985    23844.315   -2919140.7    267930.63    1.1187984    51.167884    51.167884    102.33577 
   18500    26767    298.89644   -1140.0342     -2943074    23847.262   -2919226.7    267812.78    1.1192907    51.160381    51.160381    102.32076 
   18600    26767    300.62891   -897.23214   -2943058.9    23985.486   -2919073.4    267512.56    1.1205469    51.141256    51.141256    102.28251 
   18700    26767    300.82371    186.73279   -2942841.2    24001.028   -2918840.2    267187.04    1.1219121    51.120504    51.120504    102.24101 
   18800    26767    303.19964   -907.55794   -2942958.6     24190.59     -2918768    267184.44     1.121923    51.120339    51.120339    102.24068 
   18900    26767    299.30692   -1065.0917   -2942927.5    23880.012   -2919047.5    267235.53    1.1217084    51.123597    51.123597    102.24719 
   19000    26767    297.76345    1389.8411   -2943049.3    23756.867   -2919292.4    267441.92    1.1208428    51.136754    51.136754    102.27351 
   19100    26767    298.98852    838.13938   -2943069.2    23854.608   -2919214.5    267870.07    1.1190513    51.164028    51.164028    102.32806 
   19200    26767    298.87713    1165.4073   -2942761.3    23845.721   -2918915.6    268252.44    1.1174562    51.188362    51.188362    102.37672 
   19300    26767    300.71336   -1973.0121   -2942674.6    23992.224   -2918682.3    268221.87    1.1175836    51.186417    51.186417    102.37283 
   19400    26767    302.53605    2644.4615     -2942832    24137.645   -2918694.3    268267.34    1.1173941    51.189309    51.189309    102.37862 
   19500    26767    298.82842   -2523.7477   -2942808.1    23841.835   -2918966.2    268602.14    1.1160014    51.210595    51.210595    102.42119 
   19600    26767    298.87827   -722.19276   -2943023.5    23845.812   -2919177.7    268783.57    1.1152481    51.222123    51.222123    102.44425 
   19700    26767    297.51453   -230.16848   -2942771.4    23737.007   -2919034.4     268875.2     1.114868    51.227943    51.227943    102.45589 
   19800    26767    299.86636    644.12813   -2942508.9    23924.646   -2918584.2    268847.06    1.1149847    51.226156    51.226156    102.45231 
   19900    26767    305.06595    3.1200736   -2942608.7    24339.492   -2918269.2    268849.31    1.1149754    51.226298    51.226298     102.4526 
   20000    26767    300.99418   -789.99458   -2942598.4    24014.628   -2918583.7    268779.12    1.1152665     51.22184     51.22184    102.44368 
   20100    26767    298.84407    1553.4889   -2942873.2    23843.083   -2919030.1    268429.75    1.1167181    51.199637    51.199637    102.39927 
   20200    26767    296.96146   -580.53613   -2942878.4     23692.88   -2919185.5    268163.79    1.1178256    51.182722    51.182722    102.36544 
   20300    26767    299.01577   -860.72517   -2942920.8    23856.783     -2919064     268152.8    1.1178714    51.182023    51.182023    102.36405 
   20400    26767    300.41157   -1337.8999   -2942862.2    23968.146   -2918894.1    268348.07     1.117058    51.194443    51.194443    102.38889 
   20500    26767    300.30359     1579.461   -2942722.3     23959.53   -2918762.8    268270.42    1.1173813    51.189505    51.189505    102.37901 
   20600    26767     301.3491    957.15133   -2942806.4    24042.946   -2918763.4    268286.84    1.1173129     51.19055     51.19055     102.3811 
   20700    26767    299.86822   -1549.1993   -2942920.8    23924.794     -2918996    268080.67    1.1181722    51.177433    51.177433    102.35487 
   20800    26767    299.45679     69.20659   -2943074.9    23891.969   -2919182.9    267546.57    1.1204044    51.143423    51.143423    102.28685 
   20900    26767    297.58172    2436.6325     -2942978    23742.368   -2919235.6    267207.12    1.1218277    51.121785    51.121785    102.24357 
   21000    26767    299.30342   -362.40731   -2942966.5    23879.732   -2919086.8    267592.32    1.1202128    51.146339    51.146339    102.29268 
   21100    26767    301.31989    2029.6706   -2942898.8    24040.615   -2918858.2    267667.01    1.1199003    51.151097    51.151097    102.30219 
   21200    26767    300.44581   -2953.1755     -2942738    23970.877   -2918767.1    267617.98    1.1201054    51.147974    51.147974    102.29595 
   21300    26767    302.31568   -1959.9667   -2942887.7    24120.064   -2918767.7     267457.9    1.1207759    51.137773    51.137773    102.27555 
   21400    26767    300.30509   -108.50421   -2942868.5     23959.65   -2918908.9    267262.74    1.1215943    51.125332    51.125332    102.25066 
   21500    26767    300.38423    877.94654   -2943058.5    23965.964   -2919092.5    267351.84    1.1212205    51.131013    51.131013    102.26203 
   21600    26767    300.50467    612.22811   -2943242.6    23975.573     -2919267    267172.18    1.1219744    51.119557    51.119557    102.23911 
   21700    26767    299.56461    986.88436   -2943232.3    23900.572   -2919331.7    266833.29    1.1233994    51.097933    51.097933    102.19587 
   21800    26767     298.1277   -2003.0125     -2942965    23785.928   -2919179.1    266672.46    1.1240769    51.087666    51.087666    102.17533 
   21900    26767     300.6119   -1318.0645     -2942878    23984.129   -2918893.9    266398.02    1.1252349    51.070134    51.070134    102.14027 
   22000    26767    302.54257   -970.48059   -2942852.1    24138.166   -2918713.9    266327.59    1.1255325    51.065633    51.065633    102.13127 
   22100    26767    299.52226   -2091.6113   -2942837.4    23897.192   -2918940.2    266316.97    1.1255774    51.064955    51.064955    102.12991 
   22200    26767       298.45    1480.5899   -2942971.6    23811.642     -2919160    266396.64    1.1252408    51.070046    51.070046    102.14009 
   22300    26767    298.15442    938.69813   -2943056.6    23788.061   -2919268.5    266474.94    1.1249101    51.075049    51.075049     102.1501 
   22400    26767    298.05938    1156.6903   -2943033.3    23780.477   -2919252.8    266483.25     1.124875     51.07558     51.07558    102.15116 
   22500    26767    300.75369    2122.6436   -2943066.8    23995.441   -2919071.3    266508.13      1.12477     51.07717     51.07717    102.15434 
   22600    26767    301.46611    549.20711   -2942918.8    24052.281   -2918866.5    266594.73    1.1244047    51.082701    51.082701     102.1654 
   22700    26767    302.46733     668.2941   -2942991.1    24132.163   -2918858.9    266706.52    1.1239333    51.089841    51.089841    102.17968 
   22800    26767    297.90916    712.60915   -2942889.2    23768.492   -2919120.7    266681.42    1.1240392    51.088237    51.088237    102.17647 
   22900    26767    297.66901   -664.04471   -2942998.7    23749.332   -2919249.3    266774.02     1.123649     51.09415     51.09415     102.1883 
   23000    26767    300.03035   -555.98403     -2943139     23937.73   -2919201.2    266829.18    1.1234167    51.097672    51.097672    102.19534 
   23100    26767    298.62866   -411.62538   -2942891.5    23825.897   -2919065.6    266599.79    1.1243833    51.083024    51.083024    102.16605 
   23200    26767    301.95891   -1188.3988   -2942991.2    24091.599   -2918899.6    266524.63    1.1247004    51.078223    51.078223    102.15645 
   23300    26767     300.0744      441.806     -2942821    23941.244   -2918879.8    266182.33    1.1261467    51.056347    51.056347    102.11269 
   23400    26767    302.03222    -1530.889   -2943033.7    24097.448   -2918936.3     265681.5    1.1282696    51.024306    51.024306    102.04861 
   23500    26767    300.08674    1197.4763   -2943115.8    23942.229   -2919173.6    265209.17     1.130279    50.994051    50.994051     101.9881 
   23600    26767     298.4429    515.65987   -2943170.5    23811.076   -2919359.4    265013.56    1.1311133     50.98151     50.98151    101.96302 
   23700    26767    299.67542   -337.37518   -2943182.5    23909.412   -2919273.1    264926.83    1.1314836    50.975949    50.975949     101.9519 
   23800    26767    299.59364    671.02768   -2943025.2    23902.887   -2919122.3    264775.47    1.1321304    50.966239    50.966239    101.93248 
   23900    26767    300.57862    802.18134   -2943081.6    23981.474   -2919100.2    264729.39    1.1323274    50.963282    50.963282    101.92656 
   24000    26767    300.77484   -1948.5231   -2943084.1    23997.129     -2919087    264762.61    1.1321854    50.965414    50.965414    101.93083 
   24100    26767    299.88942   -1711.4777   -2943022.8    23926.486   -2919096.4    264451.91    1.1335156     50.94547     50.94547    101.89094 
   24200    26767    302.17258   -100.92676   -2943339.7    24108.646   -2919231.1    264151.89     1.134803    50.926197    50.926197    101.85239 
   24300    26767    298.43622   -1365.7389   -2943296.1    23810.544   -2919485.5    264203.27    1.1345823    50.929498    50.929498      101.859 
   24400    26767    297.68042    14.791533   -2943268.4    23750.243   -2919518.1    264024.84    1.1353491    50.918031    50.918031    101.83606 
   24500    26767    299.93643    69.023417   -2943282.6    23930.237   -2919352.4    263729.18    1.1366219    50.899017    50.899017    101.79803 
   24600    26767    299.11327     925.2604   -2943087.9    23864.562   -2919223.4    263559.23    1.1373548    50.888082    50.888082    101.77616 
   24700    26767    301.89517    2050.9485   -2943261.2    24086.514   -2919174.7    263472.15    1.1377307    50.882477    50.882477    101.76495 
   24800    26767    301.31658   -1623.9128   -2943326.5    24040.351   -2919286.1    263533.98    1.1374638    50.886456    50.886456    101.77291 
   24900    26767    299.60672   -136.47451     -2943401    23903.931   -2919497.1    263168.37     1.139044    50.862913    50.862913    101.72583 
   25000    26767    297.25434    1270.3053   -2943376.6    23716.248   -2919660.4    262645.78    1.1413104    50.829223    50.829223    101.65845 
   25100    26767    299.00364   -425.26824   -2943417.8    23855.815     -2919562    262606.62    1.1414806    50.826698    50.826698     101.6534 
   25200    26767    303.23626   -605.96727   -2943503.2    24193.511   -2919309.7    262387.81    1.1424325    50.812577    50.812577    101.62515 
   25300    26767      300.383   -1695.1108   -2943224.9    23965.866     -2919259    261929.82    1.1444301    50.782996    50.782996    101.56599 
   25400    26767    302.90793   -902.47371   -2943421.9    24167.316   -2919254.6    262158.67     1.143431    50.797781    50.797781    101.59556 
   25500    26767    299.50032   -1503.2323   -2943275.1    23895.442   -2919379.7    262373.66    1.1424941    50.811664    50.811664    101.62333 
   25600    26767    300.75752    108.77502   -2943378.6    23995.747   -2919382.9    262287.83     1.142868    50.806122    50.806122    101.61224 
   25700    26767    300.79069   -789.50217   -2943310.6    23998.393   -2919312.2    262441.76    1.1421976    50.816059    50.816059    101.63212 
   25800    26767    301.74147   -899.65868   -2943308.3     24074.25   -2919234.1     262398.7    1.1423851     50.81328     50.81328    101.62656 
   25900    26767    302.72789   -313.41502   -2943549.5    24152.952   -2919396.6    262234.01    1.1431025    50.802647    50.802647    101.60529 
   26000    26767    299.15105    1012.9515   -2943519.1    23867.576   -2919651.5    262071.58     1.143811    50.792155    50.792155    101.58431 
   26100    26767    297.95858   -1107.7596   -2943445.4    23772.435     -2919673    261906.32    1.1445327    50.781477    50.781477    101.56295 
   26200    26767    301.73839    755.77726   -2943485.9    24074.005   -2919411.9     261736.2    1.1452767    50.770479    50.770479    101.54096 
   26300    26767    298.64367   -1001.4677   -2943142.5    23827.095   -2919315.4    261987.36    1.1441787    50.786714    50.786714    101.57343 
   26400    26767    300.27414    1388.4074   -2943311.1    23957.181   -2919353.9    262375.21    1.1424874    50.811763    50.811763    101.62353 
   26500    26767    298.64776    -1832.196   -2943300.4    23827.421     -2919473    262426.78    1.1422628    50.815092    50.815092    101.63018 
   26600    26767    299.89313    1957.6485   -2943388.6    23926.782   -2919461.8    262293.33     1.142844    50.806477    50.806477    101.61295 
   26700    26767    299.32716   -294.65436     -2943330    23881.627   -2919448.4    262169.57    1.1433835    50.798485    50.798485    101.59697 
   26800    26767    300.79573   -1419.7284   -2943403.5    23998.795   -2919404.7    262236.31    1.1430925    50.802796    50.802796    101.60559 
   26900    26767     301.1741   -202.39284   -2943508.6    24028.984   -2919479.6    262096.13    1.1437038    50.793742    50.793742    101.58748 
   27000    26767    299.18722    76.833532   -2943584.8    23870.462   -2919714.3    261756.11    1.1451895    50.771767    50.771767    101.54353 
   27100    26767    297.67848   -542.25013   -2943629.6    23750.088   -2919879.5    261321.12    1.1470958    50.743627    50.743627    101.48725 
   27200    26767    297.81845    144.88278   -2943426.1    23761.255   -2919664.9    261256.85     1.147378    50.739466    50.739466    101.47893 
   27300    26767    302.35465      3525.13   -2943389.8    24123.173   -2919266.7    261371.81    1.1468733    50.746908    50.746908    101.49382 
   27400    26767    302.00719   -2002.8397   -2943244.5    24095.451   -2919149.1    261584.43    1.1459411    50.760664    50.760664    101.52133 
   27500    26767    299.11177    772.09764   -2943144.1    23864.442   -2919279.7    261641.49    1.1456912    50.764355    50.764355    101.52871 
   27600    26767    298.87359    305.20395   -2943346.1    23845.439   -2919500.6     261638.3    1.1457052    50.764149    50.764149     101.5283 
   27700    26767    299.86506    283.84341   -2943622.9    23924.542   -2919698.4    261599.27    1.1458761    50.761625    50.761625    101.52325 
   27800    26767    299.33773    359.29799   -2943682.4     23882.47     -2919800    261391.16    1.1467884     50.74816     50.74816    101.49632 
   27900    26767    298.09686   -531.62215   -2943527.8    23783.468   -2919744.3    261380.98    1.1468331    50.747501    50.747501      101.495 
   28000    26767     299.1971    776.24247   -2943481.8     23871.25   -2919610.6    261251.19    1.1474028      50.7391      50.7391     101.4782 
   28100    26767    299.92644    2524.4818   -2943467.9     23929.44   -2919538.5    260914.83     1.148882    50.717315    50.717315    101.43463 
   28200    26767    301.69281    660.67062   -2943608.3    24070.368   -2919537.9     260660.6    1.1500026    50.700837    50.700837    101.40167 
   28300    26767    299.91013   -1569.7651   -2943598.2    23928.138     -2919670    260873.43    1.1490643    50.714633    50.714633    101.42927 
   28400    26767    297.92888    59.862324   -2943562.6    23770.066   -2919792.5    261043.23    1.1483169    50.725633    50.725633    101.45127 
   28500    26767    297.85771    2571.2614   -2943450.3    23764.387   -2919685.9    261239.87    1.1474526    50.738367    50.738367    101.47673 
   28600    26767       301.24    95.977799   -2943543.8    24034.242   -2919509.5     261302.8    1.1471762    50.742441    50.742441    101.48488 
   28700    26767    302.04081   -1421.1523   -2943578.3    24098.134   -2919480.2    261310.83     1.147141    50.742961    50.742961    101.48592 
   28800    26767    298.99185   -169.43124     -2943375    23854.874   -2919520.2    261040.11    1.1483306    50.725431    50.725431    101.45086 
   28900    26767    299.42392   -516.99232   -2943372.6    23889.346   -2919483.2    260926.38    1.1488312    50.718064    50.718064    101.43613 
   29000    26767    300.44376    904.40271   -2943533.1    23970.714   -2919562.4    260967.13    1.1486518    50.720704    50.720704    101.44141 
   29100    26767    298.77236    1138.1544   -2943549.2    23837.362   -2919711.8    261320.49    1.1470986    50.743586    50.743586    101.48717 
   29200    26767    301.41453   -2680.2006   -2943747.8    24048.166   -2919699.6    261672.04    1.1455575    50.766331    50.766331    101.53266 
   29300    26767     299.8375    1114.2683   -2943615.2    23922.344   -2919692.8    261716.88    1.1453612     50.76923     50.76923    101.53846 
   29400    26767    300.59615    971.06488   -2943708.6    23982.872   -2919725.7    261683.28    1.1455082    50.767058    50.767058    101.53412 
   29500    26767    298.98987    235.26062   -2943541.8    23854.716   -2919687.1    261641.68    1.1456904    50.764368    50.764368    101.52874 
   29600    26767     301.7551   -448.82861   -2943510.2    24075.338   -2919434.8     261606.2    1.1458458    50.762073    50.762073    101.52415 
   29700    26767    303.40231    681.86831   -2943521.9    24206.759   -2919315.1    261483.68    1.1463826    50.754147    50.754147    101.50829 
   29800    26767    300.41546    2411.6571   -2943456.9    23968.456   -2919488.4    261151.12    1.1478425    50.732621    50.732621    101.46524 
   29900    26767    298.81721        -2161   -2943653.9     23840.94   -2919812.9    261047.85    1.1482966    50.725933    50.725933    101.45187 
   30000    26767    297.07663    2164.3938   -2943730.3    23702.069   -2920028.2    260997.65    1.1485174    50.722681    50.722681    101.44536 
   30100    26767    298.58553    1602.5056   -2943766.1    23822.456   -2919943.6    260882.65    1.1490237     50.71523     50.71523    101.43046 
   30200    26767    301.59524   -2647.0927   -2943779.9    24062.584   -2919717.3    260605.86    1.1502441    50.697288    50.697288    101.39458 
   30300    26767    300.25685   -381.95437   -2943581.3    23955.801   -2919625.5    260276.95    1.1516977    50.675951    50.675951     101.3519 
   30400    26767    299.61007    286.31766   -2943547.5    23904.198   -2919643.3    260303.57    1.1515799    50.677678    50.677678    101.35536 
   30500    26767    300.21717    23.815743   -2943596.2    23952.635   -2919643.6    260499.32    1.1507146    50.690378    50.690378    101.38076 
   30600    26767    302.13564   -610.83457     -2943760      24105.7   -2919654.3    260677.26    1.1499291    50.701917    50.701917    101.40383 
   30700    26767    298.43576   -51.604364   -2943682.9    23810.507   -2919872.4    260837.07    1.1492245    50.712277    50.712277    101.42455 
   30800    26767    299.07316    2123.5271   -2943887.1    23861.361   -2920025.8     260981.7    1.1485876    50.721648    50.721648     101.4433 
   30900    26767    299.82948   -1621.9419   -2943831.8    23921.703   -2919910.1    260861.85    1.1491153    50.713882    50.713882    101.42776 
   31000    26767    300.18582    600.86086   -2943602.7    23950.134   -2919652.6    261032.72    1.1483631    50.724953    50.724953    101.44991 
   31100    26767    301.17928   -1924.6605   -2943484.8    24029.397   -2919455.5    261481.14    1.1463938    50.753983    50.753983    101.50797 
   31200    26767    301.92165    -270.8759   -2943606.7    24088.626   -2919518.1    261226.37    1.1475119    50.737493    50.737493    101.47499 
   31300    26767    300.16248    208.11973   -2943729.5    23948.272   -2919781.2     260604.6    1.1502497    50.697206    50.697206    101.39441 
   31400    26767    298.31126    49.714632   -2943681.4    23800.574   -2919880.8    260005.44    1.1529003    50.658324    50.658324    101.31665 
   31500    26767    298.61632    1493.1203   -2943674.7    23824.912   -2919849.7    259646.45    1.1544943    50.634998    50.634998       101.27 
   31600    26767     300.6749    2275.5684   -2943659.1    23989.155   -2919669.9    259619.87    1.1546126     50.63327     50.63327    101.26654 
   31700    26767    302.08904    668.15527   -2943626.2    24101.981   -2919524.2    259676.74    1.1543597    50.636967    50.636967    101.27393 
   31800    26767    300.94974    357.40131   -2943636.9    24011.083   -2919625.8    259637.12    1.1545358    50.634391    50.634391    101.26878 
   31900    26767    298.30183    1198.6038   -2943745.1    23799.821   -2919945.2    259464.55    1.1553037    50.623171    50.623171    101.24634 
   32000    26767    296.41028    700.10208   -2943550.6    23648.905   -2919901.7    259270.51    1.1561684    50.610548    50.610548     101.2211 
   32100    26767    300.38755    -1250.016   -2943696.1    23966.229   -2919729.9    259312.52     1.155981    50.613282    50.613282    101.22656 
   32200    26767    300.21358    517.65359   -2943678.3    23952.349   -2919725.9    259543.29    1.1549532    50.628291    50.628291    101.25658 
   32300    26767    299.32264   -175.26215   -2943729.4    23881.266   -2919848.1    259628.84    1.1545726    50.633853    50.633853    101.26771 
   32400    26767    297.47212    624.05609   -2943852.2    23733.623   -2920118.5    259835.38    1.1536549    50.647276    50.647276    101.29455 
   32500    26767    296.48136    250.34079   -2943710.7    23654.576   -2920056.2    259728.78    1.1541284    50.640349    50.640349     101.2807 
   32600    26767    299.65729     52.64566     -2943711    23907.966     -2919803    259541.43    1.1549615    50.628171    50.628171    101.25634 
   32700    26767    300.50023     -91.6348   -2943703.5    23975.219   -2919728.3    259359.29    1.1557726    50.616324    50.616324    101.23265 
   32800    26767    300.14261   -176.55145   -2943651.8    23946.686   -2919705.1    259483.46    1.1552195    50.624401    50.624401     101.2488 
   32900    26767    299.83828    696.34607     -2943639    23922.406   -2919716.6     259482.4    1.1552243    50.624331    50.624331    101.24866 
   33000    26767    300.15012    635.62444   -2943633.1    23947.286   -2919685.8    259427.21      1.15547    50.620743    50.620743    101.24149 
   33100    26767    300.46406    -87.29128   -2943524.1    23972.333   -2919551.7    259341.72    1.1558509    50.615181    50.615181    101.23036 
   33200    26767    301.48749    746.00641     -2943634    24053.987     -2919580    259419.67    1.1555036    50.620252    50.620252     101.2405 
   33300    26767    299.16884   -872.70887   -2943759.9    23868.995   -2919890.9    259664.06     1.154416    50.636143    50.636143    101.27229 
   33400    26767    299.80737    923.17343   -2943882.4     23919.94   -2919962.5    259725.77    1.1541417    50.640154    50.640154    101.28031 
   33500    26767    298.19085   -659.76963   -2943635.8    23790.967   -2919844.8    259711.58    1.1542048    50.639232    50.639232    101.27846 
   33600    26767     301.7628   -388.97788   -2943740.7    24075.952   -2919664.8    259384.02    1.1556624    50.617933    50.617933    101.23587 
   33700    26767    299.57077   -1032.1012   -2943630.2    23901.062   -2919729.1    259199.64    1.1564844    50.605937    50.605937    101.21187 
   33800    26767    299.40998   -7.0657171   -2943670.6    23888.234   -2919782.4    259188.77     1.156533    50.605229    50.605229    101.21046 
   33900    26767    301.27627   -1397.8715   -2943803.4    24037.135   -2919766.2    259241.76    1.1562966    50.608677    50.608677    101.21735 
   34000    26767    299.95678   -560.48453   -2943789.1     23931.86   -2919857.3    259149.25    1.1567093    50.602657    50.602657    101.20531 
   34100    26767    297.17282   -764.60023   -2943671.5    23709.744   -2919961.7    259041.58    1.1571901    50.595648    50.595648     101.1913 
   34200    26767    299.69156   -706.93288   -2943748.4      23910.7   -2919837.7    258770.29    1.1584033    50.577979    50.577979    101.15596 
   34300    26767    302.09773   -322.27928   -2943685.8    24102.675   -2919583.2    258512.65    1.1595578    50.561188    50.561188    101.12238 
   34400    26767     302.7791    632.51229   -2943741.4    24157.037   -2919584.4    258533.32    1.1594651    50.562536    50.562536    101.12507 
   34500    26767    299.82855   -1541.0354   -2943724.2     23921.63   -2919802.6    258429.57    1.1599306    50.555771    50.555771    101.11154 
   34600    26767    301.13178     238.1729   -2943969.1    24025.607   -2919943.5    258426.89    1.1599426    50.555596    50.555596    101.11119 
   34700    26767     299.1425   -389.72602   -2943843.6    23866.893   -2919976.8    258577.08    1.1592689    50.565388    50.565388    101.13078 
   34800    26767    301.10363    -198.5603   -2943913.9    24023.361   -2919890.5    258767.16    1.1584173    50.577775    50.577775    101.15555 
   34900    26767    299.26436   -836.39318   -2943662.5    23876.616   -2919785.9    258760.78    1.1584459    50.577359    50.577359    101.15472 
   35000    26767    300.11171   -300.62749   -2943492.8    23944.221   -2919548.6    258672.65    1.1588406    50.571617    50.571617    101.14323 
   35100    26767    301.78274    4096.7842   -2943463.1    24077.543   -2919385.6    258333.12    1.1603636    50.549481    50.549481    101.09896 
   35200    26767    300.11446    1187.4432     -2943290    23944.441   -2919345.5    258192.07    1.1609975    50.540279    50.540279    101.08056 
   35300    26767    300.47583   -215.66994   -2943625.8    23973.272   -2919652.5    258138.43    1.1612388    50.536779    50.536779    101.07356 
   35400    26767    299.70154    755.17444   -2943716.5    23911.496     -2919805    258041.93     1.161673    50.530481    50.530481    101.06096 
   35500    26767    299.99677    918.67631   -2943743.9    23935.051   -2919808.8    257747.42    1.1630004    50.511249    50.511249     101.0225 
   35600    26767    300.33188   -2013.1088   -2943709.3    23961.787   -2919747.5    257908.51     1.162274     50.52177     50.52177    101.04354 
   35700    26767     299.1159    422.81544   -2943630.8    23864.771     -2919766    258083.99    1.1614837    50.533226    50.533226    101.06645 
   35800    26767     297.4943   -898.22258   -2943667.4    23735.393     -2919932    258147.71     1.161197    50.537384    50.537384    101.07477 
   35900    26767    299.76007   -100.11041   -2943892.7    23916.166   -2919976.5       258145    1.1612092    50.537207    50.537207    101.07441 
   36000    26767     301.0541   -812.34864   -2943868.3    24019.409   -2919848.9    258149.53    1.1611889    50.537503    50.537503    101.07501 
   36100    26767    302.73217     2131.942   -2943794.8    24153.293   -2919641.5    258066.75    1.1615613    50.532101    50.532101     101.0642 
   36200    26767    301.09239   -29.730415     -2943740    24022.464   -2919717.6    258074.48    1.1615265    50.532605    50.532605    101.06521 
   36300    26767    300.02547    873.42479     -2943940    23937.341   -2920002.7    257854.98    1.1625153    50.518275    50.518275    101.03655 
   36400    26767    298.79903     1790.631   -2943819.8     23839.49   -2919980.3    257589.42    1.1637138    50.500926    50.500926    101.00185 
   36500    26767    299.46295    1334.0562   -2943809.7     23892.46   -2919917.2    257707.36    1.1631812    50.508632    50.508632    101.01726 
   36600    26767    299.56784    445.56117   -2943883.8    23900.829   -2919982.9    257794.57    1.1627877    50.514329    50.514329    101.02866 
   36700    26767    297.89487    260.04479   -2943815.9    23767.352   -2920048.5    257799.58    1.1627651    50.514656    50.514656    101.02931 
   36800    26767     299.8913    906.74738   -2943843.4    23926.636   -2919916.8     257474.5    1.1642332    50.493415    50.493415    100.98683 
   36900    26767      301.419   -2340.2856   -2943812.3    24048.523   -2919763.8    257277.27    1.1651257    50.480519    50.480519    100.96104 
   37000    26767    299.10808    1103.0186     -2943638    23864.148   -2919773.8    257161.16    1.1656517    50.472924    50.472924    100.94585 
   37100    26767    299.42214   -1854.2181   -2943764.6    23889.204   -2919875.4    257712.67    1.1631572    50.508979    50.508979    101.01796 
   37200    26767    298.16041   -104.43078   -2943876.6    23788.538     -2920088     258166.2    1.1611139    50.538591    50.538591    101.07718 
   37300    26767    297.78712    370.77456   -2943887.7    23758.755   -2920128.9    258221.19    1.1608666    50.542179    50.542179    101.08436 
   37400    26767    301.36178   -467.30036   -2943861.8    24043.957   -2919817.8    258350.42    1.1602859    50.550609    50.550609    101.10122 
   37500    26767    300.09979   -1367.1156   -2943679.6     23943.27   -2919736.3    258292.82    1.1605447    50.546852    50.546852     101.0937 
   37600    26767    302.15534   -1476.1248     -2943914    24107.271   -2919806.7    258142.44    1.1612207     50.53704     50.53704    101.07408 
   37700    26767    299.53675    153.76307   -2943921.1    23898.349   -2920022.7    257905.41     1.162288    50.521568    50.521568    101.04314 
   37800    26767    298.50567   -383.31052   -2943857.6    23816.084   -2920041.5    257629.73    1.1635317     50.50356     50.50356    101.00712 
   37900    26767    300.84555    636.36955   -2943782.3     24002.77   -2919779.5    257384.03    1.1646424      50.4875      50.4875      100.975 
   38000    26767    300.89024   -279.98033   -2943623.7    24006.336   -2919617.4    257487.22    1.1641757    50.494247    50.494247    100.98849 
   38100    26767    300.23182    1273.1744   -2943644.4    23953.805   -2919690.6    257606.66    1.1636359    50.502053    50.502053    101.00411 
   38200    26767    299.00424   -1267.0672     -2943672    23855.863   -2919816.1    258119.39    1.1613244    50.535536    50.535536    101.07107 
   38300    26767    296.42099    408.95077   -2943525.8     23649.76   -2919876.1    258013.93    1.1617991    50.528653    50.528653    101.05731 
   38400    26767     301.1121    2084.9084   -2943674.5    24024.037   -2919650.5     257914.1    1.1622488    50.522135    50.522135    101.04427 
   38500    26767    300.28131    352.92111   -2943451.6    23957.753   -2919493.8    258059.73    1.1615929    50.531643    50.531643    101.06329 
   38600    26767     300.3015    1424.6837   -2943555.9    23959.363   -2919596.5    258235.34     1.160803    50.543102    50.543102     101.0862 
   38700    26767    299.63572   -25.884431   -2943661.2    23906.245     -2919755     258467.6    1.1597599    50.558251    50.558251     101.1165 
   38800    26767    299.03062   -1576.2228   -2943611.9    23857.967     -2919754     258650.3    1.1589407     50.57016     50.57016    101.14032 
   38900    26767    299.33554    422.90839     -2943627    23882.295   -2919744.7    258498.53    1.1596211    50.560267    50.560267    101.12053 
   39000    26767    299.83304   -998.26348     -2943702    23921.988     -2919780    258556.11    1.1593629    50.564021    50.564021    101.12804 
   39100    26767    299.84243    1137.3395     -2943767    23922.737   -2919844.2    258631.47    1.1590251    50.568933    50.568933    101.13787 
   39200    26767    298.08518     561.2569   -2943742.7    23782.536   -2919960.2    258312.96    1.1604542    50.548166    50.548166    101.09633 
   39300    26767    297.68794   -362.33495     -2943840    23750.842   -2920089.1    257967.92    1.1620063    50.525649    50.525649     101.0513 
   39400    26767    298.09392    1915.5981   -2943884.5    23783.233   -2920101.3     257751.7    1.1629811    50.511529    50.511529    101.02306 
   39500    26767    300.81081    1072.1984   -2943850.7    23999.999   -2919850.7    257703.03    1.1632007     50.50835     50.50835     101.0167 
   39600    26767    300.22925     -619.581   -2943683.3    23953.599   -2919729.7    257657.91    1.1634044    50.505401    50.505401     101.0108 
   39700    26767    299.56926   -481.81548   -2943648.5    23900.942   -2919747.6    257755.57    1.1629637    50.511781    50.511781    101.02356 
   39800    26767    301.44076    1326.4867   -2943962.9    24050.259   -2919912.6    257870.33    1.1624461    50.519277    50.519277    101.03855 
   39900    26767    300.23471    994.50674   -2944104.3    23954.034   -2920150.3    257554.75    1.1638704     50.49866     50.49866    100.99732 
   40000    26767    298.50941   -2709.2172   -2943912.3    23816.383   -2920095.9    257402.72    1.1645579    50.488722    50.488722    100.97744 
   40100    26767    301.49715    1544.4805     -2943936    24054.758   -2919881.2    257519.52    1.1640296    50.496358    50.496358    100.99272 
   40200    26767      301.675   -612.35679   -2943836.6    24068.948   -2919767.7    257587.17    1.1637239    50.500779    50.500779    101.00156 
   40300    26767    300.57767   -1983.6469   -2943818.5    23981.398   -2919837.1    257484.58    1.1641876    50.494074    50.494074    100.98815 
   40400    26767    298.78327   -149.28972   -2944014.2    23838.233   -2920175.9    257178.54     1.165573     50.47406     50.47406    100.94812 
   40500    26767    297.46514     2870.927   -2943935.2    23733.067   -2920202.2    257078.21    1.1660279    50.467496    50.467496    100.93499 
   40600    26767    298.34163    888.75281   -2943767.7    23802.997   -2919964.7    256951.52    1.1666028    50.459204    50.459204    100.91841 
   40700    26767    298.73541    257.27982   -2943700.7    23834.414   -2919866.3    256808.34    1.1672532     50.44983     50.44983    100.89966 
   40800    26767    298.35524    -371.7897   -2943690.5    23804.082   -2919886.5    256897.44    1.1668484    50.455664    50.455664    100.91133 
   40900    26767    298.22459    1691.3091     -2943795    23793.659   -2920001.4     256680.5    1.1678345    50.441458    50.441458    100.88292 
   41000    26767    299.80933   -1329.2877   -2943910.7    23920.096   -2919990.6    256375.36    1.1692245    50.421461    50.421461    100.84292 
   41100    26767    300.42144    2168.9704   -2943737.6    23968.933   -2919768.7    256268.71    1.1697111    50.414469    50.414469    100.82894 
   41200    26767    303.22924    458.07956   -2943833.1    24192.951   -2919640.1    256235.17    1.1698642    50.412269    50.412269    100.82454 
   41300    26767     300.7522   -504.95316   -2943859.5    23995.322   -2919864.1    256097.27    1.1704942    50.403224    50.403224    100.80645 
   41400    26767    300.38186    1262.2138   -2943999.9    23965.775   -2920034.1     255948.3    1.1711754    50.393449    50.393449     100.7869 
   41500    26767    297.56365    3096.9264   -2943805.2    23740.926   -2920064.3    255695.61    1.1723328     50.37686     50.37686    100.75372 
   41600    26767    301.05553    1436.3282   -2943927.5    24019.523     -2919908    255779.25    1.1719495    50.382352    50.382352     100.7647 
   41700    26767    301.08151   -2034.4022   -2943840.7    24021.596   -2919819.1    255998.11    1.1709475    50.396718    50.396718    100.79344 
   41800    26767    298.96322   -758.73636   -2943736.7     23852.59   -2919884.1    256157.63    1.1702183    50.407184    50.407184    100.81437 
   41900    26767     299.8552   -263.03222   -2944067.9    23923.756   -2920144.1    256331.92    1.1694227    50.418613    50.418613    100.83723 
   42000    26767    298.81426    865.78675   -2944011.2    23840.705   -2920170.5    256323.05    1.1694631    50.418032    50.418032    100.83606 
   42100    26767    300.48243   -2562.0548   -2943954.4    23973.799   -2919980.6    256503.64    1.1686398     50.42987     50.42987    100.85974 
   42200    26767     299.7814   -599.06941   -2943694.4    23917.867   -2919776.6     256805.8    1.1672647    50.449664    50.449664    100.89933 
   42300    26767    299.47823    1298.5301   -2943635.4    23893.679   -2919741.7    257079.35    1.1660227     50.46757     50.46757    100.93514 
   42400    26767    300.85606   -605.30678   -2943722.2    24003.609   -2919718.6    257389.61    1.1646172    50.487865    50.487865    100.97573 
   42500    26767    300.55823    228.80266   -2943850.3    23979.847   -2919870.4    257306.98    1.1649912    50.482462    50.482462    100.96492 
   42600    26767     298.8449   -335.40364   -2944019.9    23843.149   -2920176.8    257038.88    1.1662063    50.464922    50.464922    100.92984 
   42700    26767    298.23978   -1482.8978   -2943985.9     23794.87     -2920191    256680.81    1.1678331    50.441478    50.441478    100.88296 
   42800    26767    298.58973       2509.2   -2943840.4    23822.791   -2920017.6    256694.21    1.1677722    50.442356    50.442356    100.88471 
   42900    26767     299.2473   -409.90169   -2943687.7    23875.255   -2919812.4    256773.89    1.1674098    50.447574    50.447574    100.89515 
   43000    26767    300.83177   -31.333947   -2943713.8    24001.671   -2919712.1    256828.31    1.1671624    50.451138    50.451138    100.90228 
   43100    26767    301.77617    1079.0828   -2943885.7    24077.019   -2919808.7    256880.82    1.1669239    50.454576    50.454576    100.90915 
   43200    26767     298.2555    558.77539   -2943936.2    23796.125   -2920140.1    256795.47    1.1673117    50.448987    50.448987    100.89797 
   43300    26767    299.00851   -368.74363   -2943987.7    23856.203   -2920131.5    256559.25    1.1683865    50.433514    50.433514    100.86703 
   43400    26767    301.28157   -1496.3377   -2943967.9    24037.558   -2919930.4    256443.74    1.1689128    50.425944    50.425944    100.85189 
   43500    26767    300.32247    995.39761   -2943824.3    23961.036   -2919863.3    256557.83    1.1683929    50.433421    50.433421    100.86684 
   43600    26767    298.65111    344.84509   -2943812.8    23827.688   -2919985.1    257088.15    1.1659828    50.468146    50.468146    100.93629 
   43700    26767    296.12609   -1855.0923   -2943840.1    23626.231   -2920213.9    257458.49    1.1643056    50.492368    50.492368    100.98474 
   43800    26767    299.38908   -481.60271   -2943906.3    23886.567   -2920019.7    257568.31    1.1638091    50.499547    50.499547    100.99909 
   43900    26767    300.46357   -1703.7295   -2943790.3    23972.294     -2919818    257645.21    1.1634618    50.504572    50.504572    101.00914 
   44000    26767    303.05538    622.23729   -2944017.7     24179.08   -2919838.7    257711.74    1.1631614    50.508919    50.508919    101.01784 
   44100    26767    299.50297    -1733.906   -2943895.6    23895.653   -2919999.9    257641.03    1.1634807    50.504299    50.504299     101.0086 
   44200    26767    300.23946   -841.07037   -2944018.5    23954.414     -2920064    257438.65    1.1643953    50.491071    50.491071    100.98214 
   44300    26767    301.56435   -1145.5633   -2944002.4    24060.119   -2919942.3    257285.31    1.1650893    50.481045    50.481045    100.96209 
   44400    26767    300.49211   -620.82192   -2943739.4    23974.571   -2919764.9    257129.42    1.1657956    50.470847    50.470847    100.94169 
   44500    26767    301.74672   -512.73348   -2943755.2    24074.669   -2919680.6    256939.06    1.1666593    50.458389    50.458389    100.91678 
   44600    26767     298.3855    871.31047     -2943724    23806.497   -2919917.5    256876.11    1.1669453    50.454267    50.454267    100.90853 
   44700    26767    297.29428   -328.46836   -2943828.6    23719.434   -2920109.2    256769.95    1.1674277    50.447316    50.447316    100.89463 
   44800    26767    299.62759   -1472.7888   -2943999.8    23905.596   -2920094.2    256654.85    1.1679512    50.439777    50.439777    100.87955 
   44900    26767    300.92369    565.28299   -2943995.4    24009.004   -2919986.4    256450.02    1.1688841    50.426356    50.426356    100.85271 
   45000    26767    300.77687    3329.2857   -2943776.6    23997.291   -2919779.3    256090.77    1.1705239    50.402798    50.402798     100.8056 
   45100    26767    301.12851    1312.8414   -2943706.7    24025.346   -2919681.3    256150.99    1.1702487    50.406748    50.406748     100.8135 
   45200    26767     299.3472   -361.04926   -2943812.2    23883.225     -2919929     256305.5    1.1695432    50.416881    50.416881    100.83376 
   45300    26767    298.99346   -270.69342   -2943970.5    23855.003   -2920115.5    256441.04     1.168925    50.425767    50.425767    100.85153 
   45400    26767    301.32482    -2114.412   -2944120.5    24041.008   -2920079.5    256300.14    1.1695677     50.41653     50.41653    100.83306 
   45500    26767    299.70157    63.328662   -2943970.1    23911.499   -2920058.6    256004.82    1.1709169    50.397158    50.397158    100.79432 
   45600    26767    301.42346    400.66312   -2943888.7    24048.879   -2919839.9    256123.68    1.1703734    50.404957    50.404957    100.80991 
   45700    26767    301.20826   -486.09818   -2943679.1    24031.709   -2919647.4    256208.88    1.1699843    50.410545    50.410545    100.82109 
   45800    26767    301.29605   -495.34713   -2943784.6    24038.713   -2919745.9    256463.83    1.1688212     50.42726     50.42726    100.85452 
   45900    26767    300.03661   -188.97257   -2943878.3     23938.23   -2919940.1    256707.97    1.1677096    50.443257    50.443257    100.88651 
   46000    26767    299.60842    2257.7436   -2943881.2    23904.067   -2919977.2    256605.75    1.1681747    50.436561    50.436561    100.87312 
   46100    26767    303.78435    489.09591   -2944189.9     24237.24   -2919952.7    256602.21    1.1681909    50.436329    50.436329    100.87266 
   46200    26767    299.51333     968.1679     -2944124     23896.48   -2920227.5    256694.75    1.1677697    50.442391    50.442391    100.88478 
   46300    26767    299.95166     -82.3843   -2944242.4    23931.452   -2920310.9    256712.83    1.1676875    50.443575    50.443575    100.88715 
   46400    26767    300.37533    325.44348   -2944197.6    23965.254   -2920232.4    256475.04    1.1687701    50.427995    50.427995    100.85599 
   46500    26767    299.18726    49.041847   -2943926.4    23870.465   -2920055.9    256347.89    1.1693498     50.41966     50.41966    100.83932 
   46600    26767    300.41518     601.1732   -2943831.9    23968.434   -2919863.4    256145.34    1.1702745    50.406377    50.406377    100.81275 
   46700    26767      300.436    257.52456   -2943809.8    23970.094   -2919839.7    256072.59     1.170607    50.401605    50.401605    100.80321 
   46800    26767    301.47628    736.14147   -2943963.9    24053.092   -2919910.8    256011.26    1.1708874    50.397581    50.397581    100.79516 
   46900    26767    299.66136    657.56418   -2943962.5     23908.29   -2920054.2    255964.52    1.1711012    50.394514    50.394514    100.78903 
   47000    26767    300.30765   -564.51634   -2944085.9    23959.854   -2920126.1    256017.78    1.1708576    50.398009    50.398009    100.79602 
   47100    26767    298.00914    155.61614   -2944054.5    23776.469   -2920278.1    256228.66    1.1698939    50.411842    50.411842    100.82368 
   47200    26767    295.23151   -678.11657   -2943923.4    23554.858   -2920368.5    256301.92    1.1695595    50.416646    50.416646    100.83329 
   47300    26767    299.75113   -806.69792   -2943945.1    23915.453   -2920029.6    256110.84    1.1704321    50.404115    50.404115    100.80823 
   47400    26767    301.72384    2404.4924   -2943990.6    24072.844   -2919917.7    255792.86    1.1718871    50.383246    50.383246    100.76649 
   47500    26767    301.84052    -1112.079   -2944056.9    24082.153   -2919974.8    255789.23    1.1719037    50.383008    50.383008    100.76602 
   47600    26767    298.55286    735.97686   -2944021.3    23819.849   -2920201.4    255652.37    1.1725311     50.37402     50.37402    100.74804 
   47700    26767    298.21743   -2060.3239   -2944034.9    23793.087   -2920241.8    255463.69    1.1733971    50.361624    50.361624    100.72325 
   47800    26767    302.44277    350.23757   -2944151.7    24130.203   -2920021.5    255277.01    1.1742552    50.349354    50.349354    100.69871 
   47900    26767    300.98064    1234.8714   -2943925.1    24013.548   -2919911.5    255211.06    1.1745586    50.345018    50.345018    100.69004 
   48000    26767     302.0317   -871.54895   -2944005.1    24097.406   -2919907.6    255328.74    1.1740173    50.352755    50.352755    100.70551 
   48100    26767    300.35696   -2931.5811   -2943903.3    23963.789   -2919939.5    255411.63    1.1736363    50.358203    50.358203    100.71641 
   48200    26767    301.02353    692.92638   -2944054.6     24016.97   -2920037.7    255023.33    1.1754233    50.332671    50.332671    100.66534 
   48300    26767    299.20637    -2222.008   -2944104.4    23871.989   -2920232.4    255328.72    1.1740174    50.352753    50.352753    100.70551 
   48400    26767    298.57562   -811.61538   -2944087.3    23821.665   -2920265.7     255803.2    1.1718397    50.383925    50.383925    100.76785 
   48500    26767    301.21442   -1960.8118   -2944086.4      24032.2   -2920054.2    255999.46    1.1709413    50.396807    50.396807    100.79361 
   48600    26767    304.07104   -2664.3151   -2944122.4    24260.114   -2919862.3    255679.01     1.172409    50.375769    50.375769    100.75154 
   48700    26767    300.82551    20.745387   -2943971.5    24001.172   -2919970.3    255483.71    1.1733052     50.36294     50.36294    100.72588 
   48800    26767     300.2192    2674.8701   -2944139.9    23952.797   -2920187.1    255609.17    1.1727293    50.371182    50.371182    100.74236 
   48900    26767    297.94629   -502.40282   -2944035.7    23771.454   -2920264.2    255728.16    1.1721836    50.378997    50.378997    100.75799 
   49000    26767    299.76651    2053.6832   -2944127.7     23916.68     -2920211    255469.62    1.1733699    50.362014    50.362014    100.72403 
   49100    26767    298.81229    159.78493   -2943892.5    23840.548     -2920052    255487.59    1.1732873    50.363195    50.363195    100.72639 
   49200    26767    299.63188    2148.4373   -2943747.4    23905.938   -2919841.5    255131.66    1.1749242    50.339796    50.339796    100.67959 
   49300    26767    301.80145    928.95948   -2943954.6    24079.036   -2919875.6    254751.59    1.1766771    50.314787    50.314787    100.62957 
   49400    26767    299.37439   -1666.1492   -2943891.7    23885.395   -2920006.3    254580.72    1.1774668    50.303535    50.303535    100.60707 
   49500    26767    299.85061   -1656.0844   -2944054.3    23923.389   -2920130.9     254289.8    1.1788139    50.284367    50.284367    100.56873 
   49600    26767    300.89215    270.44417   -2944190.1    24006.488   -2920183.6    253958.31    1.1803526    50.262507    50.262507    100.52501 
   49700    26767     298.1415     1330.949   -2944113.1    23787.029     -2920326    253795.83    1.1811083    50.251786    50.251786    100.50357 
   49800    26767    298.72331    1840.5032   -2944111.5    23833.449   -2920278.1    253884.49    1.1806958    50.257636    50.257636    100.51527 
   49900    26767     301.7548   -1050.0583   -2944047.7    24075.314   -2919972.4    254133.32    1.1795398     50.27405     50.27405     100.5481 
   50000    26767    298.87534    1904.7459   -2943827.7    23845.578   -2919982.1    254247.87    1.1790083    50.281602    50.281602     100.5632 
   50100    26767    298.59896   -343.92109   -2943872.4    23823.528   -2920048.9    254532.24    1.1776911    50.300341    50.300341    100.60068 
   50200    26767    300.47626    2311.8942   -2944091.1    23973.307   -2920117.8    254444.45    1.1780975    50.294558    50.294558    100.58912 
   50300    26767    300.64102    116.34948   -2944254.3    23986.452   -2920267.8    254220.92    1.1791333    50.279826    50.279826    100.55965 
   50400    26767    298.69922    617.20249   -2944267.8    23831.527   -2920436.3    254173.56     1.179353    50.276703    50.276703    100.55341 
   50500    26767    300.48416    501.27798   -2944246.2    23973.937   -2920272.3     254099.7    1.1796958    50.271833    50.271833    100.54367 
   50600    26767    300.97266    1109.9463   -2944061.4    24012.912   -2920048.5    254159.25    1.1794194     50.27576     50.27576    100.55152 
   50700    26767    300.13469   -2538.6079   -2943928.2    23946.055   -2919982.2    254355.83    1.1785079    50.288718    50.288718    100.57744 
   50800    26767    300.53903    -1770.227   -2943974.3    23978.315     -2919996    254350.31    1.1785335    50.288354    50.288354    100.57671 
   50900    26767    299.90243     1299.088   -2944120.7    23927.524   -2920193.2    254382.69    1.1783835    50.290488    50.290488    100.58098 
[...]
  140300    26767     297.0391    1843.8859   -2944197.3    23699.075   -2920498.2    249310.38    1.2023581    49.953983    49.953983    99.907966 
  140400    26767    302.16662   -2428.2307   -2944509.8    24108.171   -2920401.7    249387.74    1.2019851    49.959149    49.959149    99.918298 
  140500    26767    303.43628    633.51251   -2944576.6     24209.47   -2920367.1    249480.52    1.2015381    49.965344    49.965344    99.930688 
  140600    26767    299.92347    2087.0597   -2944531.9    23929.202   -2920602.7    249605.23    1.2009378    49.973668    49.973668    99.947336 
  140700    26767    300.30318    918.56717     -2944667    23959.498   -2920707.5     249497.9    1.2014544    49.966504    49.966504    99.933008 
  140800    26767     300.1724   -187.89826   -2944652.9    23949.063   -2920703.9    249249.08    1.2026538    49.949889    49.949889    99.899777 
  140900    26767    301.16879    248.98034   -2944525.1     24028.56   -2920496.6    248912.92     1.204278    49.927423    49.927423    99.854845 
  141000    26767     302.1656    506.25091   -2944424.9     24108.09   -2920316.8    248755.67    1.2050393    49.916906    49.916906    99.833813 
  141100    26767    299.96627   -553.95667   -2944466.3    23932.617   -2920533.7    248633.62    1.2056308    49.908741    49.908741    99.817482 
  141200    26767    297.75528    509.82575   -2944437.9    23756.215   -2920681.7    248748.57    1.2050737    49.916432    49.916432    99.832864 
  141300    26767    299.49456    2069.0216   -2944543.7    23894.983   -2920648.7    248922.52    1.2042315    49.928065    49.928065     99.85613 
  141400    26767    298.52565    423.09203   -2944296.1    23817.678   -2920478.4    249214.19    1.2028222    49.947558    49.947558    99.895115 
  141500    26767    301.11442   -551.77807   -2944352.2    24024.222   -2920327.9    249364.13    1.2020989    49.957573    49.957573    99.915146 
  141600    26767    301.20623   -483.01575   -2944424.3    24031.547   -2920392.8     249369.1     1.202075    49.957904    49.957904    99.915809 
  141700    26767    299.74086   -609.54491   -2944460.9    23914.633   -2920546.2    249286.59    1.2024728    49.952394    49.952394    99.904789 
  141800    26767    299.95431    -1659.049   -2944644.9    23931.664   -2920713.2    249369.73     1.202072    49.957946    49.957946    99.915893 
  141900    26767    298.07298   -1753.7226   -2944547.1    23781.563   -2920765.5    249666.98    1.2006408    49.977789    49.977789    99.955578 
  142000    26767    300.90616   -213.17881   -2944589.6    24007.606     -2920582    249704.85    1.2004587    49.980315    49.980315    99.960631 
  142100    26767    300.60267   -201.06136   -2944351.3    23983.392   -2920367.9    249816.96      1.19992    49.987794    49.987794    99.975588 
  142200    26767    303.82814    3468.1327     -2944304    24240.734   -2920063.3    249778.11    1.2001066    49.985203    49.985203    99.970406 
  142300    26767    305.64049   -1176.4207   -2944374.4    24385.331   -2919989.1    249831.65    1.1998494    49.988774    49.988774    99.977548 
  142400    26767    302.28193   -131.85542   -2944387.9    24117.371   -2920270.5    250149.22    1.1983262    50.009946    50.009946    100.01989 
  142500    26767    300.49221   -422.69262   -2944405.3    23974.579   -2920430.8    250374.82    1.1972464    50.024975    50.024975    100.04995 
  142600    26767    298.96066    115.72744   -2944499.8    23852.386   -2920647.5    250161.44    1.1982676     50.01076     50.01076    100.02152 
  142700    26767     298.7586    765.90172   -2944532.5    23836.265   -2920696.3    249769.23    1.2001493     49.98461     49.98461    99.969221 
  142800    26767    302.15256   -1191.9507   -2944645.4    24107.049   -2920538.4       249777    1.2001119    49.985129    49.985129    99.970258 
  142900    26767    301.35114   -2659.9339   -2944350.2    24043.108   -2920307.1    249931.91    1.1993681     49.99546     49.99546     99.99092 
  143000    26767    301.97532   -191.14033   -2944340.6    24092.908   -2920247.7     249734.6    1.2003157    49.982301    49.982301    99.964601 
  143100    26767    299.54074   -255.77724   -2944503.6    23898.667     -2920605    249865.63    1.1996862     49.99104     49.99104    99.982081 
  143200    26767     298.8232    1762.6883   -2944544.7    23841.418   -2920703.3    250010.59    1.1989906    50.000706    50.000706    100.00141 
  143300    26767    300.53563     2153.619   -2944671.9    23978.044   -2920693.9     249924.5    1.1994036    49.994966    49.994966    99.989932 
  143400    26767    302.39675   -906.76249   -2944691.1    24126.532   -2920564.5    249861.64    1.1997054    49.990774    49.990774    99.981548 
  143500    26767    300.92954   -2411.6154   -2944477.2    24009.471   -2920467.8    249994.96    1.1990656    49.999664    49.999664    99.999328 
  143600    26767    302.08896    78.263139   -2944553.4    24101.975   -2920451.4    249810.35    1.1999517    49.987354    49.987354    99.974707 
  143700    26767    298.86269    2877.0737   -2944530.7    23844.569   -2920686.1    249820.88    1.1999011    49.988056    49.988056    99.976112 
  143800    26767    298.78577    198.62598   -2944600.4    23838.432   -2920761.9    249904.36    1.1995003    49.993623    49.993623    99.987246 
  143900    26767    301.20336    5108.4573   -2944609.9    24031.318   -2920578.6    249787.45    1.2000617    49.985826    49.985826    99.971651 
  144000    26767    302.76419    703.53068   -2944564.1    24155.848   -2920408.3     249780.3    1.2000961    49.985349    49.985349    99.970698 
  144100    26767    301.17309   -394.20593   -2944636.3    24028.902   -2920607.4    249867.14     1.199679    49.991141    49.991141    99.982282 
  144200    26767    298.43415   -371.28175   -2944694.8    23810.378   -2920884.4    249947.88    1.1992914    49.996525    49.996525    99.993051 
  144300    26767    299.86654     657.3865   -2944703.1     23924.66   -2920778.5    249881.06    1.1996121     49.99207     49.99207    99.984139 
  144400    26767    301.03945    54.506141   -2944604.3    24018.241     -2920586    249940.66    1.1993261    49.996044    49.996044    99.992088 
  144500    26767    301.70586    310.56212     -2944592    24071.409   -2920520.6    249834.21    1.1998371    49.988945    49.988945    99.977889 
  144600    26767    300.36071   -2196.4545   -2944600.2    23964.087   -2920636.1    249745.06    1.2002654    49.982998    49.982998    99.965996 
  144700    26767    296.85254   -28.994484   -2944579.8    23684.191   -2920895.6    249531.88    1.2012908    49.968772    49.968772    99.937545 
  144800    26767    296.45904    1387.5895   -2944459.8    23652.795     -2920807    249354.57     1.202145    49.956934    49.956934    99.913868 
  144900    26767    299.18153   -317.15274     -2944399    23870.007     -2920529    249202.72    1.2028775    49.946791    49.946791    99.893583 
  145000    26767    300.52667   -1570.0302   -2944545.2    23977.328   -2920567.8    249221.41    1.2027873     49.94804     49.94804    99.896081 
  145100    26767    300.82225    1610.7948   -2944705.7    24000.911   -2920704.8     249175.3    1.2030099     49.94496     49.94496    99.889919 
  145200    26767    298.57279    1685.7693   -2944637.1    23821.439   -2920815.6    249150.41    1.2031301    49.943297    49.943297    99.886593 
  145300    26767    298.31251   -412.44623   -2944605.7    23800.674     -2920805    249451.77    1.2016766    49.963424    49.963424    99.926849 
  145400    26767    300.02586    7.4974256   -2944518.7    23937.372   -2920581.4    249781.43    1.2000907    49.985424    49.985424    99.970848 
  145500    26767    300.94535    2231.2596   -2944432.8    24010.732     -2920422    249522.45    1.2013362    49.968143    49.968143    99.936285 
  145600    26767     299.8383     470.6662   -2944439.3    23922.408   -2920516.9     249304.9    1.2023845    49.953617    49.953617    99.907234 
  145700    26767    298.24584    1937.3498   -2944574.6    23795.354   -2920779.2    249301.94    1.2023988    49.953419    49.953419    99.906839 
  145800    26767    297.72348    67.104165   -2944586.7    23753.677   -2920833.1    249443.27    1.2017176    49.962857    49.962857    99.925714 
  145900    26767    299.56837    616.73859   -2944637.3    23900.871   -2920736.5    249635.33     1.200793    49.975677    49.975677    99.951354 
  146000    26767    302.34678    950.84223   -2944738.2    24122.545   -2920615.7     249645.9    1.2007421    49.976382    49.976382    99.952765 
  146100    26767     300.3729   -627.72674   -2944509.8     23965.06   -2920544.8    249495.39    1.2014665    49.966336    49.966336    99.932673 
  146200    26767    302.19556    599.79442   -2944543.7     24110.48   -2920433.2    249388.51    1.2019814    49.959201    49.959201    99.918401 
  146300    26767    300.45338   -1239.8659   -2944482.9    23971.481   -2920511.4    249516.53    1.2013647    49.967748    49.967748    99.935495 
  146400    26767    300.58957   -1912.0943   -2944642.7    23982.347   -2920660.4    249465.55    1.2016102    49.964345    49.964345    99.928689 
  146500    26767    299.07159    537.97405   -2944664.1    23861.236   -2920802.9    249307.53    1.2023718    49.953793    49.953793    99.907585 
  146600    26767    298.62721    2221.2829   -2944649.6    23825.782   -2920823.9    249144.46    1.2031588    49.942899    49.942899    99.885797 
  146700    26767    302.73797    2338.4025   -2944626.6    24153.756   -2920472.8    248841.64     1.204623    49.922657    49.922657    99.845314 
  146800    26767    302.09637    2265.1502     -2944540    24102.566   -2920437.5    248804.91    1.2048008      49.9202      49.9202      99.8404 
  146900    26767    300.07739   -426.19826   -2944554.4    23941.483   -2920612.9    249187.59    1.2029506    49.945781    49.945781    99.891561 
  147000    26767    297.72558   -1670.4127   -2944522.3    23753.845   -2920768.5    249248.15    1.2026583    49.949827    49.949827    99.899653 
  147100    26767    300.26177   -170.12742   -2944690.9    23956.193   -2920734.7     249142.1    1.2031702    49.942741    49.942741    99.885483 
  147200    26767    300.95125     1342.469   -2944492.6    24011.203   -2920481.4    249039.78    1.2036646    49.935903    49.935903    99.871807 
  147300    26767    303.19523    303.01541   -2944455.5    24190.238   -2920265.3    249019.09    1.2037646     49.93452     49.93452     99.86904 
  147400    26767    302.04731    2072.8146   -2944579.9    24098.652   -2920481.2     249074.5    1.2034967    49.938224    49.938224    99.876448 
  147500    26767    298.70135   -220.16982   -2944507.4    23831.697   -2920675.7    249322.19    1.2023012    49.954772    49.954772    99.909543 
  147600    26767    299.71495   -615.95429   -2944664.7    23912.566   -2920752.1    249339.62    1.2022171    49.955936    49.955936    99.911871 
  147700    26767    297.62034   -983.14574   -2944501.2    23745.449   -2920755.8    249102.02    1.2033638    49.940063    49.940063    99.880125 
  147800    26767    299.92928   -373.60514   -2944475.7    23929.666   -2920546.1    248783.23    1.2049058     49.91875     49.91875      99.8375 
  147900    26767    300.43405   -2557.0253   -2944299.1    23969.939   -2920329.2    248701.67    1.2053009    49.913295    49.913295    99.826589 
  148000    26767    300.79239   -988.95866   -2944383.1    23998.529   -2920384.6    249027.08    1.2037259    49.935054    49.935054    99.870108 
  148100    26767    300.83922    2829.5741   -2944616.2    24002.265   -2920613.9    249226.62    1.2027622    49.948388    49.948388    99.896776 
  148200    26767    298.67964   -1678.5269   -2944484.3    23829.964   -2920654.4    249382.77    1.2020091    49.958817    49.958817    99.917635 
  148300    26767    301.10881   -91.618801   -2944711.6    24023.774   -2920687.8    249219.32    1.2027974    49.947901    49.947901    99.895801 
  148400    26767    297.97818    1622.9935   -2944561.2    23773.999   -2920787.2     249082.8    1.2034567    49.938778    49.938778    99.877556 
  148500    26767    299.94444    1371.6999   -2944619.2    23930.876   -2920688.3    248937.17    1.2041607    49.929044    49.929044    99.858089 
  148600    26767     303.2097   -1038.0889   -2944627.4    24191.393     -2920436    248847.57    1.2045943    49.923053    49.923053    99.846106 
  148700    26767    301.04184    3072.6055   -2944483.2    24018.431   -2920464.8    248785.87     1.204893    49.918927    49.918927    99.837853 
  148800    26767    301.02874    -301.5729   -2944758.8    24017.386   -2920741.4    248938.63    1.2041536    49.929142    49.929142    99.858284 
  148900    26767    301.06966   -2456.7639   -2944851.6    24020.651   -2920830.9    248982.54    1.2039413    49.932077    49.932077    99.864154 
  149000    26767    299.51108   -555.85114   -2944679.3      23896.3     -2920783    248694.31    1.2053366    49.912802    49.912802    99.825605 
  149100    26767    300.07255    950.18815   -2944605.7    23941.097   -2920664.6     248565.9    1.2059593     49.90421     49.90421     99.80842 
  149200    26767    299.75031   -2127.9216   -2944582.2    23915.387   -2920666.9    248723.54    1.2051949    49.914758    49.914758    99.829515 
  149300    26767    298.60274    693.26544   -2944752.9    23823.829   -2920929.1    248680.72    1.2054025    49.911893    49.911893    99.823786 
  149400    26767    299.17366    293.73666   -2944862.2    23869.379   -2920992.8    248580.17    1.2058901    49.905165    49.905165     99.81033 
  149500    26767    299.45494   -1717.9321   -2944619.2    23891.822   -2920727.4       248890    1.2043889    49.925891    49.925891    99.851781 
  149600    26767    300.99627     562.5126   -2944605.6    24014.796   -2920590.8    249138.52    1.2031875    49.942502    49.942502    99.885004 
  149700    26767    299.97822   -410.53066   -2944519.1    23933.571   -2920585.5    249379.48    1.2020249    49.958598    49.958598    99.917196 
  149800    26767    300.17514   -553.59297   -2944559.9    23949.282   -2920610.6    249478.24    1.2015491    49.965192    49.965192    99.930384 
  149900    26767    299.64613   -127.17853   -2944642.3    23907.076   -2920735.2    249489.42    1.2014953    49.965938    49.965938    99.931876 
  150000    26767    297.75559    94.793433   -2944748.1     23756.24   -2920991.9    249310.14    1.2023593    49.953967    49.953967    99.907934 
  150100    26767    299.57435    527.87467   -2944832.1    23901.348   -2920930.7    249228.26    1.2027543    49.948498    49.948498    99.896995 
  150200    26767    299.88753   -713.84372   -2944679.1    23926.335   -2920752.8    249356.03     1.202138    49.957031    49.957031    99.914063 
  150300    26767    303.88679   -1345.0234   -2944698.4    24245.413     -2920453    249542.28    1.2012408    49.969466    49.969466    99.938933 
  150400    26767    302.47649   -125.71924   -2944648.5    24132.894   -2920515.6    249649.31    1.2007257     49.97661     49.97661     99.95322 
  150500    26767    300.63384   -941.03543   -2944700.5    23985.879   -2920714.6    249716.12    1.2004045    49.981068    49.981068    99.962135 
  150600    26767    298.43227   -434.21702   -2944658.3    23810.228   -2920848.1    249762.37    1.2001822    49.984153    49.984153    99.968306 
  150700    26767    298.48357    -1306.435   -2944597.7    23814.321   -2920783.3    249842.39    1.1997978    49.989491    49.989491    99.978981 
  150800    26767    301.96586    680.68002   -2944564.1    24092.153     -2920472    249685.74    1.2005506    49.979041    49.979041    99.958081 
  150900    26767    302.83217    167.30286   -2944627.4    24161.271   -2920466.2    249779.34    1.2001007    49.985285    49.985285    99.970569 
  151000    26767    299.33467     1425.068   -2944521.8    23882.226   -2920639.6     249899.7    1.1995227    49.993312    49.993312    99.986625 
  151100    26767    299.94032    1026.3855   -2944708.5    23930.547   -2920777.9    249763.56    1.2001765    49.984232    49.984232    99.968464 
  151200    26767    300.21147     1291.158   -2944875.3    23952.181   -2920923.1     249622.9    1.2008528    49.974848    49.974848    99.949695 
  151300    26767    299.57349   -475.47079     -2944896     23901.28   -2920994.8    249538.87    1.2012572    49.969239    49.969239    99.938478 
  151400    26767    301.58202    457.60802   -2944727.2    24061.529   -2920665.6    249257.53     1.202613    49.950453    49.950453    99.900906 
  151500    26767    300.16527    1034.9399   -2944396.5    23948.495     -2920448    249008.53    1.2038156    49.933814    49.933814    99.867629 
  151600    26767    300.24092    989.48379   -2944439.4     23954.53   -2920484.8    248601.89    1.2057847    49.906618    49.906618    99.813237 
  151700    26767    299.45551   -287.25879   -2944533.4    23891.867   -2920641.5    248485.37    1.2063501     49.89882     49.89882    99.797639 
  151800    26767    297.51684    1272.0411   -2944533.7    23737.192   -2920796.6    248554.52    1.2060145    49.903449    49.903449    99.806897 
  151900    26767    299.08086   -297.01008     -2944675    23861.976     -2920813    248708.82    1.2052663    49.913773    49.913773    99.827546 
  152000    26767    299.71264    1597.3549   -2944485.6    23912.382   -2920573.2    248643.66    1.2055821    49.909414    49.909414    99.818827 
  152100    26767    301.73769    1375.5578   -2944488.3    24073.949   -2920414.4    248735.64    1.2051363    49.915567    49.915567    99.831134 
  152200    26767    301.55695    2618.3077   -2944616.3    24059.529   -2920556.8    249162.85      1.20307    49.944128    49.944128    99.888255 
  152300    26767    300.29019    775.75007     -2944706    23958.461   -2920747.6    249572.67    1.2010945    49.971495    49.971495     99.94299 
  152400    26767    299.55903   -2025.6247   -2944725.3    23900.126   -2920825.1    249400.89    1.2019218    49.960028    49.960028    99.920055 
  152500    26767    300.40112   -60.907322   -2944796.6    23967.311   -2920829.3    249352.26    1.2021562     49.95678     49.95678     99.91356 
  152600    26767    299.42209    1974.9767   -2944701.3      23889.2   -2920812.1    249201.52    1.2028833    49.946711    49.946711    99.893423 
  152700    26767    299.89728    528.06566   -2944561.4    23927.113   -2920634.3    249198.53    1.2028978    49.946511    49.946511    99.893022 
  152800    26767    302.01497    1286.2332   -2944511.7    24096.071   -2920415.6    249083.51    1.2034532    49.938826    49.938826    99.877652 
  152900    26767    300.26052    585.49392   -2944432.4    23956.094   -2920476.3    249214.41    1.2028211    49.947573    49.947573    99.895145 
  153000    26767    301.32079   -1190.4866   -2944684.2    24040.687   -2920643.5    249339.19    1.2022192    49.955907    49.955907    99.911814 
  153100    26767    300.56552    804.27776   -2944784.2    23980.428   -2920803.8    249145.27    1.2031549    49.942953    49.942953    99.885906 
  153200    26767    298.55788   -654.53003   -2944650.2     23820.25     -2920830    249099.73    1.2033749     49.93991     49.93991     99.87982 
  153300    26767     300.8239    202.56913   -2944773.4    24001.043   -2920772.3    249194.38    1.2029178    49.946234    49.946234    99.892468 
  153400    26767    299.37646    2102.4069   -2944547.1    23885.559   -2920661.6    249106.59    1.2033417    49.940368    49.940368    99.880736 
  153500    26767    302.82329   -1523.8309   -2944599.8    24160.563   -2920439.3    249143.87    1.2031617    49.942859    49.942859    99.885719 
  153600    26767    302.01543    2251.8918   -2944564.6    24096.108   -2920468.5    248853.37    1.204566
