LAMMPS (2 Aug 2019)
# lammps code to simulate tension test on RVE of nanocomposite with crack
# crack needs to be initiated first
# system is already equilibrated
# delete some atoms from a region to intiate a crack
# 30 % functionalized cnt with -OH group
# no cnt fix during equilibration in MS
# load equilibrated structure

read_restart    restart.npt_equi
  restoring atom style charge from restart
  orthogonal box = (0.826767 -0.182212 2.3806) to (50.8145 49.8055 102.356)
  2 by 2 by 7 MPI processor grid
  pair style reax/c stores no restart info
  26858 atoms
  read_restart CPU = 0.0109887 secs

# ReaxFF potential to define interatomic interactions

pair_style	reax/c control_file lgvdw yes
pair_coeff	* * ffield.reax.lg C C H O H C C C O O C C
Reading potential file ffield.reax.lg with DATE: 2012-01-06

neighbor	4 bin
neigh_modify	every 10 delay 0 check no

thermo 100
thermo_style custom step atoms temp press pe ke etotal vol density lx ly lz      #output variables

compute pnc_temp all temp
compute pnc_pe all pe/atom
compute pnc_stress all stress/atom pnc_temp pair bond
compute pnc_str all reduce sum c_pnc_stress[3]

variable tmpz equal "lz"
variable L0z equal ${tmpz}
variable L0z equal 99.9753875778641
variable tmpx equal "lx"
variable L0x equal ${tmpx}
variable L0x equal 49.987693788932
variable tmpy equal "ly"
variable L0y equal ${tmpy}
variable L0y equal 49.987693788932

# define groups of atoms to delete

fix std all qeq/reax 1 0.0 10.0 1e-6 reax/c

region atoms_for_deletion block EDGE 16.5 EDGE EDGE 50.29642 52.79642              # NOTE: box size will change after equilibration
delete_atoms region atoms_for_deletion
Deleted 211 atoms, new total = 26647
reset_ids
Resetting atom IDs ...
Unused restart file global fix info:
  fix style: npt, fix ID: npt_equi
Neighbor list info ...
  update every 10 steps, delay 0 steps, check no
  max neighbors/atom: 2000, page size: 100000
  master list distance cutoff = 14
  ghost atom cutoff = 14
  binsize = 7, bins = 8 8 15
  2 neighbor lists, perpetual/occasional/extra = 2 0 0
  (1) pair reax/c, perpetual
      attributes: half, newton off, ghost
      pair build: half/bin/newtoff/ghost
      stencil: half/ghost/bin/3d/newtoff
      bin: standard
  (2) fix qeq/reax, perpetual, copy from (1)
      attributes: half, newton off, ghost
      pair build: copy
      stencil: none
      bin: none

reset_timestep 0
timestep 0.25
thermo_style custom step atoms temp press pe ke etotal vol density lx ly lz
fix 1 all npt temp 300.0 300.0 25.0 x 0.0 0.0 250.0 y 0.0 0.0 250.0 couple xy
fix 2 all deform 1 z erate 0.00001 units box
fix bd all reax/c/bonds 1000 bonds.reaxc
dump deform1 all custom 1000 dump.deform id type x y z

variable strainz equal "(lz-v_L0z)/v_L0z"
variable strainx equal "(lx-v_L0x)/v_L0x"
variable strainy equal "(ly-v_L0y)/v_L0y"
variable stressz equal "-pzz/10000"
variable p1 equal "v_stressz"
variable p2 equal "v_strainz"
variable p3 equal "v_strainx"
variable p4 equal "v_strainy"
fix 3 all print 100 "${p1} ${p2} ${p3} ${p4}" file pmma_pnc_funct_30_crack.txt screen no

run 600000
Per MPI rank memory allocation (min/avg/max) = 277.2 | 286.4 | 293.1 Mbytes
Step Atoms Temp Press PotEng KinEng TotEng Volume Density Lx Ly Lz 
       0    26647    296.96502     194.0725   -2915862.6    23586.941   -2892275.6    249815.45    1.1983833    49.987694    49.987694    99.975388 
     100    26647    304.06486   -369.69207     -2916715    24150.858   -2892564.1    250066.23    1.1971815    50.006528    50.006528    100.00038 
     200    26647    305.50928    2284.7996   -2917283.7    24265.583   -2893018.1    250264.25    1.1962343    50.020072    50.020072    100.02538 
     300    26647    302.92079   -1661.4962   -2917654.8    24059.988   -2893594.8     250395.8    1.1956058    50.026967    50.026967    100.05037 
     400    26647    299.20239    1306.8466   -2917833.8    23764.648   -2894069.1    250356.37    1.1957941    50.016781    50.016781    100.07536 
     500    26647    299.14457   -1388.3169   -2918138.5    23760.055   -2894378.4    250439.56    1.1953969    50.018844    50.018844    100.10036 
     600    26647    296.34427   -1899.3939   -2918100.7    23537.637     -2894563    250331.56    1.1959126    50.001816    50.001816    100.12535 
     700    26647    299.17575   -1348.3378   -2918346.7    23762.532   -2894584.2    250126.82    1.1968915    49.975127    49.975127    100.15034 
     800    26647    298.83643    -1813.576   -2918267.2    23735.581   -2894531.6    250092.84    1.1970541    49.965498    49.965498    100.17534 
     900    26647    300.89065    1129.2628   -2918362.9    23898.741   -2894464.2    249879.84    1.1980745    49.937987    49.937987    100.20033 
    1000    26647    300.14972    239.30237   -2918402.2    23839.891   -2894562.3    249509.58    1.1998524    49.894753    49.894753    100.22533 
    1100    26647    300.10843    161.77632   -2918584.7    23836.612   -2894748.1    249431.67    1.2002272    49.880743    49.880743    100.25032 
    1200    26647    300.94752   -420.17123   -2918836.4    23903.258   -2894933.1    249391.36    1.2004212    49.870496    49.870496    100.27531 
    1300    26647    301.88577   -2446.4167     -2918973     23977.78   -2894995.2    249272.46    1.2009938    49.852394    49.852394    100.30031 
    1400    26647    298.76838    354.42225   -2918747.2    23730.176     -2895017    249482.45    1.1999829    49.867175    49.867175     100.3253 
    1500    26647    302.46399   -250.35404   -2918912.4    24023.706   -2894888.7     249968.3    1.1976505    49.909491    49.909491     100.3503 
    1600    26647    301.08474   -438.76041   -2918692.9    23914.156   -2894778.7    250405.89    1.1955576    49.946938    49.946938    100.37529 
    1700    26647     302.1419    470.47372   -2918914.3    23998.123   -2894916.2    250445.23    1.1953698    49.944644    49.944644    100.40028 
    1800    26647    301.09413   -437.43885   -2919063.8    23914.902   -2895148.9    250634.03    1.1944694    49.957247    49.957247    100.42528 
    1900    26647    300.16074    602.83132     -2919095    23840.767   -2895254.3    250732.87    1.1939985     49.96088     49.96088    100.45027 
    2000    26647    299.23817   -38.085526   -2919120.9     23767.49   -2895353.4     250829.7    1.1935376    49.964311    49.964311    100.47526 
    2100    26647    299.58598   -2057.6291   -2919108.5    23795.115   -2895313.4    250849.94    1.1934412    49.960113    49.960113    100.50026 
    2200    26647    301.55979   -3231.1891     -2919249    23951.888   -2895297.2    250782.85    1.1937605    49.947221    49.947221    100.52525 
    2300    26647    300.41772   -332.12621   -2919296.8    23861.178   -2895435.6    250545.62    1.1948908    49.917387    49.917387    100.55025 
    2400    26647    300.91614    850.35274   -2919416.8    23900.765     -2895516     250119.8    1.1969251    49.868752    49.868752    100.57524 
    2500    26647    295.79324    151.13713   -2919063.9     23493.87     -2895570    249801.43    1.1984506    49.830812    49.830812    100.60023 
    2600    26647    299.98988    174.00661   -2919236.8    23827.195   -2895409.6    249554.78    1.1996351    49.800019    49.800019    100.62523 
    2700    26647    301.62892    1515.9753   -2919179.8    23957.379   -2895222.4    249435.36    1.2002094     49.78192     49.78192    100.65022 
    2800    26647    300.83448    887.37079     -2919272    23894.279   -2895377.7    249413.38    1.2003152    49.773546    49.773546    100.67522 
    2900    26647    298.54961    1830.9028   -2919293.7    23712.799   -2895580.9    249606.33    1.1993873    49.786616    49.786616    100.70021 
    3000    26647    300.58211    813.21098   -2919467.3    23874.234   -2895593.1    249978.83    1.1976001     49.81757     49.81757     100.7252 
    3100    26647    298.70997    -2421.618   -2919364.6    23725.536   -2895639.1    250157.11    1.1967466    49.829149    49.829149     100.7502 
    3200    26647    299.15412   -602.58706   -2919487.6    23760.814   -2895726.8    250310.73    1.1960122    49.838265    49.838265    100.77519 
    3300    26647    299.05383   -3153.1207   -2919459.8    23752.849   -2895706.9    250467.89    1.1952617    49.847728    49.847728    100.80018 
    3400    26647    299.70905   -3415.4391   -2919247.4     23804.89   -2895442.5    250586.21    1.1946973     49.85332     49.85332    100.82518 
    3500    26647    300.76053    730.27121   -2919265.3    23888.406   -2895376.9    250852.76    1.1934279    49.873646    49.873646    100.85017 
    3600    26647      298.049    1050.1123   -2919170.7    23673.038   -2895497.6    251025.33    1.1926074    49.884617    49.884617    100.87517 
    3700    26647    298.79341   -1079.9989   -2919376.4    23732.164   -2895644.2    251008.12    1.1926892    49.876728    49.876728    100.90016 
    3800    26647    298.19241   -940.82818   -2919559.2    23684.429   -2895874.8    250729.71    1.1940136    49.842887    49.842887    100.92515 
    3900    26647    299.62736   -2101.0031   -2919584.2    23798.402   -2895785.8    250822.55    1.1935716    49.845942    49.845942    100.95015 
    4000    26647    300.14235    822.74928     -2919291    23839.306   -2895451.7    250948.12    1.1929743    49.852247    49.852247    100.97514 
    4100    26647     302.9371   -2121.0759   -2919464.1    24061.283   -2895402.8    251225.08    1.1916592    49.873577    49.873577    101.00014 
    4200    26647    300.48414    -1078.715   -2919325.7    23866.453   -2895459.2    251601.05    1.1898784    49.904708    49.904708    101.02513 
    4300    26647     298.4371    1014.8349   -2919400.1    23703.864   -2895696.3    251874.58    1.1885863    49.925653    49.925653    101.05012 
    4400    26647    299.96696   -1042.8898   -2919580.4    23825.375   -2895755.1    251964.93    1.1881601    49.928431    49.928431    101.07512 
    4500    26647    297.39576   -274.08099   -2919282.6    23621.153   -2895661.5     251861.8    1.1886466    49.912042    49.912042    101.10011 
    4600    26647    300.92561   -1138.2101   -2919401.2    23901.518   -2895499.7    251619.89    1.1897894      49.8819      49.8819     101.1251 
    4700    26647    300.66708   -1186.6491   -2919382.7    23880.983   -2895501.7    251444.56     1.190619    49.858358    49.858358     101.1501 
    4800    26647    299.32352    2468.7478     -2919342    23774.269   -2895567.8    251161.29    1.1919618     49.82411     49.82411    101.17509 
    4900    26647    299.80852    1430.0473   -2919350.6    23812.791   -2895537.8    250875.08    1.1933217    49.789563    49.789563    101.20009 
    5000    26647    299.69303    -3657.288   -2919481.7    23803.618   -2895678.1    250713.13    1.1940925    49.767345    49.767345    101.22508 
    5100    26647    300.23448   -1867.3893   -2919698.2    23846.623   -2895851.6    250531.27    1.1949593    49.743151    49.743151    101.25007 
    5200    26647    298.82642    1701.6505   -2919592.9    23734.786   -2895858.1    250363.68    1.1957592    49.720374    49.720374    101.27507 
    5300    26647    301.99512   -1493.1777     -2919540    23986.465   -2895553.6    250096.24    1.1970379    49.687681    49.687681    101.30006 
    5400    26647    301.38938    231.77187   -2919458.4    23938.353   -2895520.1    250108.46    1.1969794    49.682766    49.682766    101.32506 
    5500    26647    299.90193    61.478433   -2919458.5     23820.21   -2895638.3    250046.03    1.1972782    49.670439    49.670439    101.35005 
    5600    26647    299.88359   -3972.5605   -2919567.9    23818.753   -2895749.2    250292.82    1.1960977    49.688818    49.688818    101.37504 
    5700    26647    300.12148   -82.702783   -2919587.9    23837.648   -2895750.3    250488.88    1.1951615    49.702149    49.702149    101.40004 
    5800    26647    301.16439    1336.1745     -2919655    23920.483   -2895734.5    250520.64      1.19501    49.699175    49.699175    101.42503 
    5900    26647    300.04387   -1285.3987   -2919539.8    23831.484   -2895708.3    250788.85     1.193732    49.719647    49.719647    101.45002 
    6000    26647    301.46422   -979.70872   -2919587.4    23944.297   -2895643.1    250937.28    1.1930259    49.728233    49.728233    101.47502 
    6100    26647     299.7549    828.04931   -2919528.5    23808.532     -2895720    251235.77    1.1916085    49.751673    49.751673    101.50001 
    6200    26647    296.72078   -707.67794   -2919529.6    23567.542     -2895962    251441.35    1.1906342    49.765898    49.765898    101.52501 
    6300    26647     298.5609    701.03833   -2919551.7    23713.696     -2895838    251454.18    1.1905735    49.761042    49.761042       101.55 
    6400    26647    300.09934     -959.479   -2919452.9     23835.89   -2895617.1     251414.3    1.1907623    49.750973    49.750973    101.57499 
    6500    26647    299.61901     196.1429   -2919448.6    23797.738   -2895650.9    251444.22    1.1906206    49.747813    49.747813    101.59999 
    6600    26647    299.58863    423.64299     -2919569    23795.326   -2895773.7     251210.9    1.1917265    49.718612    49.718612    101.62498 
    6700    26647    298.77825   -88.831481   -2919466.4     23730.96   -2895735.4    251231.28    1.1916298    49.714516    49.714516    101.64998 
    6800    26647    304.28226   -579.35701   -2919601.8    24168.125   -2895433.7    251066.54    1.1924117    49.692105    49.692105    101.67497 
    6900    26647    302.38095   -263.82058   -2919435.3     24017.11   -2895418.2    251205.67    1.1917512    49.699764    49.699764    101.69996 
    7000    26647    300.29397   -474.40377   -2919527.3    23851.348     -2895676    251314.35    1.1912359    49.704405    49.704405    101.72496 
    7100    26647    298.51444   -623.41627   -2919498.6    23710.006   -2895788.6    251293.39    1.1913352    49.696229    49.696229    101.74995 
    7200    26647    297.51953   -3094.0616   -2919455.3    23630.984   -2895824.3    251218.48    1.1916905    49.682719    49.682719    101.77494 
    7300    26647    300.16172     314.0869   -2919531.4    23840.844   -2895690.6    251064.28    1.1924224    49.661371    49.661371    101.79994 
    7400    26647    301.41636    978.64298   -2919311.3    23940.496   -2895370.8    250969.94    1.1928706    49.645946    49.645946    101.82493 
    7500    26647    301.81097   -1152.6015     -2919345    23971.839   -2895373.1    250912.71    1.1931427    49.634193    49.634193    101.84993 
    7600    26647    300.35146   -819.84286   -2919417.9    23855.914     -2895562    250806.53    1.1936479    49.617602    49.617602    101.87492 
    7700    26647    299.40601   -2457.1404   -2919522.5    23780.821   -2895741.6    251035.42    1.1925595     49.63415     49.63415    101.89991 
    7800    26647    297.88365   -2028.1165   -2919451.4    23659.905   -2895791.5    251256.56    1.1915099    49.649918    49.649918    101.92491 
    7900    26647    299.48229   -2159.4545   -2919517.6    23786.879   -2895730.8    251282.96    1.1913847     49.64644     49.64644     101.9499 
    8000    26647    301.27994    515.28962   -2919411.3    23929.661   -2895481.7    251033.12    1.1925704    49.615672    49.615672     101.9749 
    8100    26647    301.03747   -2115.9525   -2919238.8    23910.402   -2895328.4    251196.95    1.1917926    49.625778    49.625778    101.99989 
    8200    26647    299.68795   -1105.4154   -2919389.8    23803.214   -2895586.6     251360.8    1.1910157    49.635879    49.635879    102.02488 
    8300    26647    298.31368   -159.51851   -2919429.8    23694.061   -2895735.7    251191.67    1.1918177    49.613101    49.613101    102.04988 
    8400    26647    298.93306   -910.50079   -2919423.9    23743.256   -2895680.6    251064.31    1.1924223    49.594449    49.594449    102.07487 
    8500    26647    300.03934   -2691.8223   -2919383.7    23831.124   -2895552.6    251126.24    1.1921282    49.594495    49.594495    102.09986 
    8600    26647    301.35057    3236.9079   -2919358.5    23935.271   -2895423.2    251166.03    1.1919393    49.592354    49.592354    102.12486 
    8700    26647    303.34236    82.063417   -2919580.5    24093.472     -2895487     251278.6    1.1914054    49.597396    49.597396    102.14985 
    8800    26647    298.94698    1140.5794   -2919584.4    23744.361   -2895840.1     251529.6    1.1902165    49.616092    49.616092    102.17485 
    8900    26647    297.68357   -3055.1163     -2919558    23644.013     -2895914    251829.26    1.1888002    49.639568    49.639568    102.19984 
    9000    26647    298.74396    253.04969   -2919505.1    23728.236   -2895776.9    252010.09    1.1879472    49.651315    49.651315    102.22483 
    9100    26647    301.48028    1582.3729   -2919511.3    23945.573   -2895565.8    251953.47    1.1882141     49.63967     49.63967    102.24983 
    9200    26647    299.58891   -351.53917   -2919321.1    23795.348   -2895525.7    252013.36    1.1879317    49.639502    49.639502    102.27482 
    9300    26647    300.82235    910.76674   -2919459.6    23893.316   -2895566.3    251910.89     1.188415    49.623346    49.623346    102.29982 
    9400    26647    296.98067    1872.9824   -2919368.3    23588.184   -2895780.1    251925.54    1.1883458    49.618728    49.618728    102.32481 
    9500    26647    299.30469   -775.04228   -2919721.5    23772.773   -2895948.7    252031.53    1.1878461    49.623104    49.623104     102.3498 
    9600    26647    298.15458   -773.92476   -2919641.1    23681.424   -2895959.7    252077.35    1.1876302    49.621557    49.621557     102.3748 
    9700    26647    298.93631   -624.50567   -2919470.3    23743.514   -2895726.8    252266.53    1.1867396    49.634115    49.634115    102.39979 
    9800    26647    301.75754   -705.06433   -2919561.8    23967.595   -2895594.2    252435.74    1.1859441      49.6447      49.6447    102.42478 
    9900    26647    298.39075   -208.59179     -2919364    23700.182   -2895663.8     252298.6    1.1865887    49.625158    49.625158    102.44978 
   10000    26647    301.55695   -1228.3213   -2919646.4    23951.663   -2895694.8    252014.91    1.1879244    49.591203    49.591203    102.47477 
   10100    26647    298.98765   -195.79118   -2919645.4    23747.592   -2895897.8    251927.69    1.1883357    49.576574    49.576574    102.49977 
   10200    26647    298.24382   -634.38434   -2919846.4    23688.512   -2896157.9    252164.85    1.1872181    49.593858    49.593858    102.52476 
   10300    26647    298.90683   -904.12492   -2919711.2    23741.172     -2895970    252001.75    1.1879865    49.571774    49.571774    102.54975 
   10400    26647    300.35237   -1895.5602     -2919556    23855.987     -2895700    251849.48    1.1887047    49.550758    49.550758    102.57475 
   10500    26647    301.89194   -2867.3778   -2919510.9     23978.27   -2895532.7    251704.18    1.1893909    49.530428    49.530428    102.59974 
   10600    26647     301.3549    718.71798   -2919443.2    23935.614   -2895507.6    251781.42     1.189026    49.531995    49.531995    102.62474 
   10700    26647    299.09994    3351.4693   -2919379.8     23756.51   -2895623.3    251935.67    1.1882981    49.541132    49.541132    102.64973 
   10800    26647    299.11817   -275.55177     -2919631    23757.959     -2895873    252081.87    1.1876089    49.549472    49.549472    102.67472 
   10900    26647    300.17448    671.94758   -2919711.5    23841.858   -2895869.7    252044.99    1.1877827    49.539819    49.539819    102.69972 
   11000    26647    301.34564   -1672.0456   -2919589.1    23934.879   -2895654.2    251967.09    1.1881499    49.526136    49.526136    102.72471 
   11100    26647    301.69359    687.56874   -2919328.4    23962.516   -2895365.9    252130.27    1.1873809    49.536145    49.536145     102.7497 
   11200    26647    303.06117   -749.99267   -2919323.4    24071.138   -2895252.3    252186.49    1.1871162    49.535643    49.535643     102.7747 
   11300    26647    301.45403   -1665.9596   -2919552.7    23943.488   -2895609.2    252008.68    1.1879538    49.512157    49.512157    102.79969 
   11400    26647    298.63917   -2229.4191   -2919506.6    23719.913   -2895786.7    252092.04     1.187561    49.514326    49.514326    102.82469 
   11500    26647    299.95849    653.15858   -2919697.2    23824.702   -2895872.5    252234.92    1.1868883    49.522338    49.522338    102.84968 
   11600    26647    298.67632   -168.67558   -2919607.3    23722.864   -2895884.4    252461.29     1.185824    49.538536    49.538536    102.87467 
   11700    26647    300.70771   -1237.3742   -2919614.6    23884.211   -2895730.3    252707.77    1.1846675    49.556692    49.556692    102.89967 
   11800    26647    301.36876   -721.03055   -2919477.1    23936.715   -2895540.4    252720.82    1.1846063    49.551954    49.551954    102.92466 
   11900    26647    301.02526     -2084.57   -2919460.9    23909.433   -2895551.4    252631.22    1.1850264    49.537155    49.537155    102.94966 
   12000    26647    298.56153   -36.675092   -2919602.7    23713.747   -2895888.9    252354.11    1.1863277     49.50397     49.50397    102.97465 
   12100    26647     298.7332    1000.3414   -2919654.5    23727.382   -2895927.1    252331.18    1.1864355    49.495715    49.495715    102.99964 
   12200    26647    300.41526   -2217.0409   -2919671.3    23860.982   -2895810.3    252518.94    1.1855533    49.508119    49.508119    103.02464 
   12300    26647    301.26416   -2942.1163   -2919653.4    23928.407     -2895725    252608.42    1.1851334    49.510885    49.510885    103.04963 
   12400    26647    299.96395   -2770.2516   -2919506.7    23825.136   -2895681.5    252560.62    1.1853577    49.500198    49.500198    103.07462 
   12500    26647     303.2896   -1887.4978   -2919541.6    24089.281   -2895452.3    252508.92    1.1856004    49.489132    49.489132    103.09962 
   12600    26647    301.32453   -415.71555     -2919444    23933.203   -2895510.8    252542.59    1.1854423    49.486433    49.486433    103.12461 
   12700    26647    300.25561   -354.98075   -2919627.3    23848.302     -2895779    252749.15    1.1844735    49.500669    49.500669    103.14961 
   12800    26647    300.78135   -187.05413   -2919775.4     23890.06   -2895885.3    252646.47    1.1849549    49.484618    49.484618     103.1746 
   12900    26647    298.68561   -679.19004   -2919585.3    23723.602   -2895861.7    252577.55    1.1852782    49.471876    49.471876    103.19959 
   13000    26647    300.52564   -1042.1728   -2919513.3    23869.749   -2895643.6    252578.07    1.1852758    49.465938    49.465938    103.22459 
   13100    26647    301.24952   -1559.4173   -2919416.4    23927.245   -2895489.1    252527.31    1.1855141    49.454979    49.454979    103.24958 
   13200    26647    300.10705    1175.9379   -2919403.4    23836.502   -2895566.9     252474.3    1.1857629    49.443804    49.443804    103.27458 
   13300    26647    300.74937     -1086.87   -2919532.4     23887.52   -2895644.9    252730.18    1.1845624    49.462869    49.462869    103.29957 
   13400    26647    300.76726   -158.52786   -2919601.8     23888.94   -2895712.8    252688.56    1.1847575    49.452813    49.452813    103.32456 
   13500    26647    299.45833   -1350.8995     -2919545    23784.976     -2895760    252592.29     1.185209    49.437413    49.437413    103.34956 
   13600    26647    298.53021    1959.2889   -2919434.1    23711.259   -2895722.8    252382.99     1.186192    49.410952    49.410952    103.37455 
   13700    26647     302.7292   -425.19684     -2919555    24044.771   -2895510.2    252330.51    1.1864387    49.399843    49.399843    103.39954 
   13800    26647    300.76346   -360.77487   -2919436.7    23888.639     -2895548    252336.37    1.1864111    49.394447    49.394447    103.42454 
   13900    26647    299.84989   -2927.9474   -2919540.5    23816.076   -2895724.4    252542.55    1.1854425    49.408653    49.408653    103.44953 
   14000    26647    299.56853   -1320.3373   -2919578.5    23793.729   -2895784.7    252709.34    1.1846601    49.418997    49.418997    103.47453 
   14100    26647    298.54995   -1705.2819   -2919339.7    23712.827   -2895626.9    252760.68    1.1844195    49.418048    49.418048    103.49952 
   14200    26647    302.47707   -2822.9074   -2919417.9    24024.745   -2895393.1    252719.35    1.1846132    49.408043    49.408043    103.52451 
   14300    26647    300.26454   -2182.1072   -2919274.7    23849.011   -2895425.7    252712.62    1.1846447    49.401422    49.401422    103.54951 
   14400    26647    299.76105    680.09074   -2919531.1    23809.021   -2895722.1    252885.88    1.1838331     49.41239     49.41239     103.5745 
   14500    26647    299.29384   -1093.1811   -2919561.9    23771.911     -2895790    253180.72    1.1824545    49.435223    49.435223     103.5995 
   14600    26647    299.47096   -653.57866   -2919498.4    23785.979   -2895712.4    253354.76    1.1816422    49.446247    49.446247    103.62449 
   14700    26647    302.60222   -1119.4417   -2919614.8    24034.685   -2895580.1    253505.53    1.1809394    49.454994    49.454994    103.64948 
   14800    26647    299.89653   -775.11352   -2919443.8    23819.781     -2895624    253405.77    1.1814043    49.439301    49.439301    103.67448 
   14900    26647    297.15933    842.70694   -2919517.8    23602.375   -2895915.4    253253.53    1.1821145    49.418491    49.418491    103.69947 
   15000    26647    298.22942   -519.03649     -2919701    23687.368   -2896013.7    253077.74    1.1829356    49.395385    49.395385    103.72446 
   15100    26647    299.89051   -1959.2343   -2919612.1    23819.303   -2895792.8    253033.15    1.1831441    49.385084    49.385084    103.74946 
   15200    26647    299.10617    846.45708   -2919388.1    23757.006   -2895631.1    252872.45     1.183896    49.363453    49.363453    103.77445 
   15300    26647    299.57893   -2443.5896   -2919353.2    23794.555   -2895558.7    252868.46    1.1839146     49.35712     49.35712    103.79945 
   15400    26647    299.14021   -833.50921   -2919319.2    23759.709   -2895559.5    252945.48    1.1835541    49.358694    49.358694    103.82444 
   15500    26647    300.06642   -12.280908   -2919488.3    23833.275     -2895655    252984.68    1.1833708    49.356578    49.356578    103.84943 
   15600    26647    297.92859   -14.739428   -2919584.5    23663.474     -2895921    253143.69    1.1826274    49.366147    49.366147    103.87443 
   15700    26647    299.26919   -610.52951   -2919753.8    23769.953   -2895983.8    253349.78    1.1816654    49.380297    49.380297    103.89942 
   15800    26647    300.32942   -1878.1102   -2919620.5    23854.164   -2895766.4    253315.14     1.181827    49.370983    49.370983    103.92442 
   15900    26647    298.52538   -915.61887   -2919299.5    23710.875   -2895588.6     253086.7    1.1828937    49.342784    49.342784    103.94941 
   16000    26647    300.53525   -3291.0581   -2919370.9    23870.512   -2895500.4    253007.47    1.1832641     49.32913     49.32913     103.9744 
   16100    26647    301.52222   -798.16767   -2919548.3    23948.904   -2895599.4    253220.25    1.1822699    49.343938    49.343938     103.9994 
   16200    26647    299.34949   -79.540899   -2919579.1    23776.331   -2895802.7    253238.61    1.1821841    49.339799    49.339799    104.02439 
   16300    26647      298.745   -1448.3003   -2919523.5    23728.319   -2895795.2    253185.07    1.1824341    49.328657    49.328657    104.04938 
   16400    26647    299.32489   -494.29901   -2919408.2    23774.378   -2895633.8    253283.99    1.1819723    49.332367    49.332367    104.07438 
   16500    26647    300.42497   -2548.2241     -2919482    23861.753   -2895620.3    253375.72    1.1815444    49.335376    49.335376    104.09937 
   16600    26647    297.48147   -403.02363   -2919299.5    23627.961   -2895671.6    253344.48    1.1816901    49.326413    49.326413    104.12437 
   16700    26647    298.89619    2090.1517   -2919330.5    23740.328   -2895590.2    253561.87     1.180677     49.34165     49.34165    104.14936 
   16800    26647    301.79574    925.33271   -2919282.1    23970.629   -2895311.4    253651.03     1.180262    49.344404    49.344404    104.17435 
   16900    26647    303.47075      172.554   -2919306.8    24103.669   -2895203.2    253823.23    1.1794613    49.355231    49.355231    104.19935 
   17000    26647    302.88797   -731.93172   -2919457.3    24057.381     -2895400    253940.03    1.1789188    49.360665    49.360665    104.22434 
   17100    26647    299.86213     1350.547   -2919369.8    23817.049   -2895552.8    253717.13    1.1799545    49.333082    49.333082    104.24934 
   17200    26647    299.93518    944.41987   -2919412.3    23822.851   -2895589.5    253596.09    1.1805177    49.315401    49.315401    104.27433 
   17300    26647    299.05253    38.406111   -2919335.2    23752.745   -2895582.4    253481.92    1.1810494    49.298391    49.298391    104.29932 
   17400    26647    299.04311   -941.59405   -2919147.9    23751.997   -2895395.9     253526.5    1.1808417     49.29682     49.29682    104.32432 
   17500    26647    302.57054   -2190.9823   -2919225.4    24032.169   -2895193.2     253668.6    1.1801803    49.304727    49.304727    104.34931 
   17600    26647     302.3571     1353.923   -2919393.9    24015.216   -2895378.7    253639.24    1.1803168    49.295971    49.295971     104.3743 
   17700    26647    300.96059   -600.91386   -2919449.4    23904.295   -2895545.1     253766.7     1.179724    49.302452    49.302452     104.3993 
   17800    26647    299.39061   -552.86522   -2919366.8    23779.598   -2895587.2    253920.48    1.1790096    49.311486    49.311486    104.42429 
   17900    26647    298.70787   -1974.1818   -2919342.7     23725.37   -2895617.4    253986.79    1.1787017    49.312024    49.312024    104.44929 
   18000    26647    301.14798    687.98903   -2919347.7    23919.179   -2895428.5    253903.45    1.1790886    49.298034    49.298034    104.47428 
   18100    26647    301.34336    42.386631   -2919189.9    23934.698   -2895255.2    253774.98    1.1796855    49.279667    49.279667    104.49927 
   18200    26647    301.71276   -2751.1808   -2919315.9    23964.038   -2895351.9    253541.85    1.1807702    49.251137    49.251137    104.52427 
   18300    26647    299.01693    2118.9306   -2919431.3    23749.917   -2895681.4     253504.9    1.1809424    49.241661    49.241661    104.54926 
   18400    26647    298.85434    -617.0053   -2919408.1    23737.003   -2895671.1    253408.93    1.1813896    49.226455    49.226455    104.57426 
   18500    26647    299.44711   -1657.9836     -2919354    23784.085     -2895570    253357.69    1.1816285    49.215598    49.215598    104.59925 
   18600    26647    301.60095   -195.64872   -2919389.5    23955.158   -2895434.3    253553.34    1.1807167    49.228716    49.228716    104.62424 
   18700    26647    301.50051   -1702.1355   -2919235.3     23947.18   -2895288.1       253616     1.180425    49.228918    49.228918    104.64924 
   18800    26647    299.58006    110.11412     -2919223    23794.645   -2895428.3    253473.29    1.1810896    49.209189    49.209189    104.67423 
   18900    26647    300.29451    825.64716     -2919549    23851.391   -2895697.6    253515.38    1.1808935      49.2074      49.2074    104.69922 
   19000    26647    298.47612   -1532.7473     -2919388    23706.963   -2895681.1    254022.23    1.1785373    49.250688    49.250688    104.72422 
   19100    26647    300.79301   -554.51612   -2919346.1    23890.985   -2895455.1    254291.89    1.1772875    49.270943    49.270943    104.74921 
   19200    26647    301.40702   -2550.8379   -2919364.9    23939.754   -2895425.2    254493.06    1.1763569    49.284548    49.284548    104.77421 
   19300    26647    299.99779    201.86888   -2919332.4    23827.824   -2895504.5    254579.64    1.1759568    49.287053    49.287053     104.7992 
   19400    26647    300.37417   -1721.2063   -2919402.6    23857.719   -2895544.9    254787.26    1.1749986    49.301268    49.301268    104.82419 
   19500    26647    299.55794   -1173.4641   -2919275.7    23792.888   -2895482.8    254875.81    1.1745904    49.303956    49.303956    104.84919 
   19600    26647    302.27732   -2190.6189   -2919143.5     24008.88   -2895134.6    255227.87    1.1729701    49.332118    49.332118    104.87418 
   19700    26647    301.24845   -1234.7559   -2918969.1    23927.159     -2895042    255291.81    1.1726764    49.332418    49.332418    104.89918 
   19800    26647    300.73655   -3130.4742   -2919119.5    23886.501     -2895233    255184.31    1.1731704    49.316156    49.316156    104.92417 
   19900    26647    299.52611   -2881.6503   -2919228.8     23790.36   -2895438.5    254991.72    1.1740564    49.291672    49.291672    104.94916 
   20000    26647    298.44186    -307.0087   -2919274.5    23704.242   -2895570.2    254654.77    1.1756099    49.253229    49.253229    104.97416 
   20100    26647    298.10726   -1216.3186     -2919342    23677.665   -2895664.4    254240.98    1.1775232     49.20734     49.20734    104.99915 
   20200    26647    300.60568   -1098.2259   -2919485.7    23876.106   -2895609.6    254254.52    1.1774606    49.202794    49.202794    105.02414 
   20300    26647    302.95377   -53.166606     -2919401    24062.607   -2895338.4    254355.29    1.1769941    49.206689    49.206689    105.04914 
   20400    26647    300.82871    1160.8335   -2919114.7    23893.821   -2895220.8    254332.75    1.1770984    49.198656    49.198656    105.07413 
   20500    26647    300.84663   -1078.4651   -2919325.6    23895.244   -2895430.4    254289.73    1.1772975    49.188645    49.188645    105.09913 
   20600    26647    299.10904    381.73907   -2919334.6    23757.233   -2895577.3    254072.38    1.1783047    49.161773    49.161773    105.12412 
   20700    26647    300.66901   -772.41239   -2919491.9    23881.137   -2895610.7    254049.37    1.1784114    49.153704    49.153704    105.14911 
   20800    26647    298.11762    33.383357   -2919286.7    23678.488   -2895608.3     254302.4    1.1772389    49.172333    49.172333    105.17411 
   20900    26647    301.29117    571.28789     -2919287    23930.553   -2895356.4    254516.44    1.1762488    49.187178    49.187178     105.1991 
   21000    26647    303.41961   -2445.6259   -2919304.8    24099.608   -2895205.2    255009.48    1.1739747    49.228949    49.228949     105.2241 
   21100    26647    303.89199   -194.24598   -2919492.3    24137.127   -2895355.2    254815.25    1.1748695    49.204354    49.204354    105.24909 
   21200    26647    300.42982   -751.09938     -2919336    23862.139   -2895473.8    254815.49    1.1748684    49.198536    49.198536    105.27408 
   21300    26647    298.79706   -2415.9407   -2919198.8    23732.454   -2895466.4     254811.3    1.1748877    49.192292    49.192292    105.29908 
   21400    26647    301.83199   -1909.1297   -2919326.8    23973.508   -2895353.2    254860.95    1.1746588    49.191247    49.191247    105.32407 
   21500    26647    301.62283    4.3533968   -2919266.4    23956.895   -2895309.5    255217.71    1.1730168    49.219825    49.219825    105.34906 
   21600    26647    300.05638    934.85526   -2919320.1    23832.478   -2895487.6    255299.93    1.1726391    49.221914    49.221914    105.37406 
   21700    26647     299.8167   -896.36057   -2919481.4    23813.441     -2895668    255242.96    1.1729008    49.210586    49.210586    105.39905 
   21800    26647    298.04367   -2121.0465   -2919391.5    23672.614   -2895718.9    255253.37     1.172853    49.205755    49.205755    105.42405 
   21900    26647     300.3113   -1094.3551   -2919285.5    23852.725   -2895432.8    255273.45    1.1727607    49.201859    49.201859    105.44904 
   22000    26647    303.15963   -1451.7832   -2919297.5    24078.958   -2895218.6     255164.3    1.1732624     49.18551     49.18551    105.47403 
   22100    26647     299.4205     -1269.19     -2919071    23781.971     -2895289     254945.6    1.1742688    49.158603    49.158603    105.49903 
   22200    26647     300.0841    528.68952   -2919242.7    23834.679   -2895408.1    254593.96    1.1758907    49.118872    49.118872    105.52402 
   22300    26647    298.40986   -571.13003   -2919315.3      23701.7   -2895613.6    254681.53    1.1754864    49.121501    49.121501    105.54902 
   22400    26647    299.27112   -617.94877   -2919456.1    23770.107   -2895685.9    254645.01     1.175655    49.112165    49.112165    105.57401 
   22500    26647    299.60629   -120.59082   -2919239.3    23796.728   -2895442.5    254498.64    1.1763311    49.092238    49.092238      105.599 
   22600    26647     304.1453   -2252.1779   -2919424.1    24157.247   -2895266.8    254335.15    1.1770873    49.070659    49.070659      105.624 
   22700    26647    299.07382   -1008.3823   -2919176.8    23754.436   -2895422.4    254269.74    1.1773901    49.058545    49.058545    105.64899 
   22800    26647    297.38567    1157.2647   -2919160.1    23620.352   -2895539.7    254598.45    1.1758699     49.08444     49.08444    105.67398 
   22900    26647    296.61288    2682.5214   -2919178.8    23558.972   -2895619.9    254773.73     1.175061    49.095527    49.095527    105.69898 
   23000    26647    298.90651   -1648.4628     -2919250    23741.147   -2895508.8    255046.97    1.1738021     49.11604     49.11604    105.72397 
   23100    26647    301.16129   -677.13905   -2919176.3    23920.237     -2895256     255093.4    1.1735884    49.114706    49.114706    105.74897 
   23200    26647    302.14095   -3430.7935     -2919269    23998.048     -2895271    255171.76    1.1732281    49.116444    49.116444    105.77396 
   23300    26647    299.91496   -295.09047     -2919307    23821.245   -2895485.8    255284.89    1.1727081    49.121528    49.121528    105.79895 
   23400    26647    298.99341    -1019.733     -2919357    23748.049   -2895608.9    255319.65    1.1725485    49.119071    49.119071    105.82395 
   23500    26647    298.59227   -1398.0873   -2919262.2    23716.188     -2895546    255100.92    1.1735539    49.092229    49.092229    105.84894 
   23600    26647    300.24792   -1353.3546   -2919281.2    23847.691   -2895433.5    255196.62    1.1731138    49.095641    49.095641    105.87394 
   23700    26647    301.48816    316.35348   -2919396.2    23946.199     -2895450    255018.96     1.173931    49.072756    49.072756    105.89893 
   23800    26647    300.29962    592.68703   -2919323.1    23851.797   -2895471.3    255053.68    1.1737712    49.070306    49.070306    105.92392 
   23900    26647    300.22674   -1030.9191   -2919374.3    23846.008   -2895528.3    255232.63    1.1729483    49.081727    49.081727    105.94892 
   24000    26647    297.75883   -1780.1379   -2919305.3    23649.991   -2895655.3    255240.62    1.1729115    49.076707    49.076707    105.97391 
   24100    26647    298.74112    1311.5222   -2919452.3    23728.011   -2895724.3    255173.93    1.1732181     49.06451     49.06451     105.9989 
   24200    26647     301.1005   -4243.1704   -2919440.5    23915.409   -2895525.1    255396.07    1.1721976    49.080075    49.080075     106.0239 
   24300    26647    300.71677   -4958.6647   -2919207.6     23884.93   -2895322.6    255318.09    1.1725557    49.066799    49.066799    106.04889 
   24400    26647    299.18964   -3208.2985   -2919066.6    23763.635     -2895303     255109.1    1.1735162    49.040934    49.040934    106.07389 
   24500    26647    298.13706   -1744.7058   -2919103.6    23680.032   -2895423.6    255255.42    1.1728435    49.049218    49.049218    106.09888 
   24600    26647    297.76599   -48.165911   -2919407.8    23650.559   -2895757.2    255315.55    1.1725673    49.049218    49.049218    106.12387 
   24700    26647    297.41935   -350.46194   -2919460.5    23623.027   -2895837.5    255528.77    1.1715889    49.063917    49.063917    106.14887 
   24800    26647    298.77602   -2365.5247   -2919357.6    23730.783   -2895626.8    255913.97    1.1698254    49.095105    49.095105    106.17386 
   24900    26647    299.81243   -1457.5915   -2919230.9    23813.101   -2895417.8    256183.08    1.1685966    49.115131    49.115131    106.19886 
   25000    26647    301.80374   -1274.6978   -2919276.5    23971.264   -2895305.3    256235.83     1.168356    49.114408    49.114408    106.22385 
   25100    26647    301.09492    1510.0673   -2919218.6    23914.965   -2895303.6    256159.18    1.1687056    49.101285    49.101285    106.24884 
   25200    26647    300.35676    -2228.435   -2919232.2    23856.336   -2895375.8    256206.18    1.1684912    49.100015    49.100015    106.27384 
   25300    26647    299.49938   -1183.2581   -2919441.8    23788.237   -2895653.6    256324.36    1.1679525    49.105564    49.105564    106.29883 
   25400    26647    300.27509   -2787.9833   -2919490.3    23849.849   -2895640.4    256481.99    1.1672347    49.114886    49.114886    106.32382 
   25500    26647    300.18318   -1079.8859   -2919289.6    23842.549     -2895447    256542.56    1.1669591    49.114913    49.114913    106.34882 
   25600    26647    301.56491   -1771.7158   -2919174.8    23952.295   -2895222.5    256436.36    1.1674424    49.098977    49.098977    106.37381 
   25700    26647    300.50746   -140.54711     -2919092    23868.306   -2895223.7     256428.1      1.16748    49.092418    49.092418    106.39881 
   25800    26647    299.69465   -3259.0089   -2919079.9    23803.747   -2895276.1    256472.97    1.1672757    49.090948    49.090948     106.4238 
   25900    26647    301.32429   -4992.6771   -2919271.9    23933.183   -2895338.7    256654.09     1.166452    49.102513    49.102513    106.44879 
   26000    26647    297.80995   -2984.2501   -2919207.3    23654.051   -2895553.3     256702.1    1.1662338    49.101342    49.101342    106.47379 
   26100    26647    297.57613   -1150.4287   -2919294.1    23635.479   -2895658.6    256854.47     1.165542    49.110149    49.110149    106.49878 
   26200    26647    298.14902     1551.676   -2919220.3    23680.982   -2895539.3    256963.24    1.1650486    49.114783    49.114783    106.52378 
   26300    26647    299.03563     18.55634   -2919129.5    23751.403   -2895378.1    257249.54     1.163752    49.136372    49.136372    106.54877 
   26400    26647    301.69369   -1882.1421   -2919237.8    23962.523   -2895275.3    257388.08    1.1631256    49.143837    49.143837    106.57376 
   26500    26647    301.46939   -236.31829   -2919303.9    23944.708   -2895359.2    257194.61    1.1640005    49.119605    49.119605    106.59876 
   26600    26647    299.41675   -112.86705   -2919421.7    23781.674     -2895640    257132.61    1.1642812    49.107927    49.107927    106.62375 
   26700    26647    299.73123   -1685.4225   -2919413.9    23806.652   -2895607.3    256973.27    1.1650031    49.086956    49.086956    106.64874 
   26800    26647    301.14251    810.97749   -2919375.4    23918.745   -2895456.7    256624.41    1.1665869    49.047879    49.047879    106.67374 
   26900    26647    301.39338   -1790.1639     -2919302    23938.671   -2895363.3    256619.54     1.166609    49.041668    49.041668    106.69873 
   27000    26647    299.89172   -375.88716   -2919186.8    23819.399   -2895367.4    256644.26    1.1664966    49.038287    49.038287    106.72373 
   27100    26647    300.73768    -1666.202   -2919267.4    23886.591   -2895380.8    256655.61     1.166445     49.03363     49.03363    106.74872 
   27200    26647     299.3639   -366.65117   -2919266.1    23777.476   -2895488.7    256460.13    1.1673341    49.009216    49.009216    106.77371 
   27300    26647    299.71402     704.1556   -2919382.4    23805.285   -2895577.1    256375.68    1.1677187    48.995412    48.995412    106.79871 
   27400    26647    295.76815   -1171.1249   -2919084.3    23491.877   -2895592.4     256318.1     1.167981    48.984178    48.984178     106.8237 
   27500    26647     299.4116   -1196.3022   -2919059.2    23781.265     -2895278     256327.1      1.16794    48.979308    48.979308     106.8487 
   27600    26647    300.45786    -1990.755   -2919100.9    23864.366   -2895236.5    256638.77    1.1665216    49.003345    49.003345    106.87369 
   27700    26647    302.74365   -39.849248   -2919383.8    24045.918   -2895337.9    256734.89    1.1660849    49.006792    49.006792    106.89868 
   27800    26647    298.50159    1159.4879   -2919136.5    23708.986   -2895427.5     256821.2     1.165693    49.009299    49.009299    106.92368 
   27900    26647    297.99411    436.62193   -2918963.3    23668.678   -2895294.6    256831.05    1.1656483    49.004512    49.004512    106.94867 
   28000    26647    302.78826   -180.71571   -2919111.4    24049.462     -2895062    256997.35     1.164894    49.014647    49.014647    106.97366 
   28100    26647     301.0017   -1501.7304   -2919006.5    23907.561     -2895099    257069.93    1.1645651    49.015843    49.015843    106.99866 
   28200    26647     301.3228   -2171.0073   -2919295.3    23933.065   -2895362.2    257047.96    1.1646646    49.008025    49.008025    107.02365 
   28300    26647     299.3261   -663.15246   -2919236.5    23774.473     -2895462    256573.16    1.1668199    48.957025    48.957025    107.04865 
   28400    26647    299.71947   -734.39474   -2919212.5    23805.718   -2895406.8    256051.03    1.1691992    48.901478    48.901478    107.07364 
   28500    26647    300.50206   -2242.2748   -2919329.9    23867.876     -2895462    255834.06    1.1701908     48.87505     48.87505    107.09863 
   28600    26647    302.33963   -510.67911   -2919290.9    24013.828   -2895277.1     255630.6    1.1711222    48.849912    48.849912    107.12363 
   28700    26647    302.81756   -1427.7287     -2919084    24051.789   -2895032.2    255524.05    1.1716106    48.834033    48.834033    107.14862 
   28800    26647    300.34445   -2514.1356     -2919029    23855.358   -2895173.7    255573.74    1.1713827    48.833087    48.833087    107.17362 
   28900    26647    299.84651   -2651.2193   -2919181.3    23815.808   -2895365.5    255938.12     1.169715    48.862189    48.862189    107.19861 
   29000    26647    299.82121    1502.5409   -2919182.1    23813.799   -2895368.3    256265.09    1.1682226    48.887691    48.887691     107.2236 
   29100    26647    298.38797    794.38405   -2919130.6    23699.961   -2895430.7    256509.73    1.1671084    48.905321    48.905321     107.2486 
   29200    26647    297.03008    -1191.199   -2919015.7    23592.108   -2895423.6    256658.35    1.1664326    48.913788    48.913788    107.27359 
   29300    26647    299.34357   -1455.3102   -2919107.4    23775.861   -2895331.5    256862.64    1.1655049    48.927551    48.927551    107.29858 
   29400    26647    302.02855   -407.69272   -2919169.8     23989.12   -2895180.7    256469.32    1.1672923    48.884383    48.884383    107.32358 
   29500    26647    300.33046   -1349.0297   -2919027.9    23854.247   -2895173.6    256507.74    1.1671175    48.882352    48.882352    107.34857 
   29600    26647    299.86055   -928.05343   -2919198.1    23816.923   -2895381.2    256388.87    1.1676586    48.865337    48.865337    107.37357 
   29700    26647    297.50091   -418.80714   -2919192.1    23629.505   -2895562.6    256187.23    1.1685777    48.840433    48.840433    107.39856 
   29800    26647    300.10514   -2471.1028   -2919332.5     23836.35   -2895496.2     256434.3    1.1674517    48.858294    48.858294    107.42355 
   29900    26647    299.61187   -1199.9565   -2919151.1    23797.171     -2895354    256533.56        1.167    48.862065    48.862065    107.44855 
   30000    26647     301.4088   -2839.6105   -2919258.3    23939.896   -2895318.4    256709.08    1.1662021    48.873094    48.873094    107.47354 
   30100    26647    301.41889    1027.9622     -2919322    23940.697   -2895381.3    256605.23    1.1666741    48.857527    48.857527    107.49854 
   30200    26647    300.37613    -1309.855   -2919396.6    23857.874   -2895538.7     256364.8    1.1677682    48.828956    48.828956    107.52353 
   30300    26647    300.61246   -484.58237   -2919415.2    23876.645   -2895538.5    256200.66    1.1685164     48.80765     48.80765    107.54852 
   30400    26647    301.02923   -1922.4078   -2919046.8    23909.748   -2895137.1    256313.25    1.1680031    48.812702    48.812702    107.57352 
   30500    26647    301.84763   -283.15757   -2919072.8     23974.75     -2895098    256583.63    1.1667723    48.832768    48.832768    107.59851 
   30600    26647    301.59082    -76.91608   -2919132.7    23954.353   -2895178.4    256950.77    1.1651052    48.862018    48.862018     107.6235 
   30700    26647    299.61616   -2818.8914   -2919212.4    23797.512   -2895414.9    257183.02     1.164053     48.87842     48.87842     107.6485 
   30800    26647    299.90443    -1970.706   -2919278.1    23820.408   -2895457.7    257225.06    1.1638628    48.876741    48.876741    107.67349 
   30900    26647    300.99936   -479.77211   -2919259.9    23907.375   -2895352.6    257459.77    1.1628017    48.893361    48.893361    107.69849 
   31000    26647    304.12457   -2677.7069   -2919300.8      24155.6   -2895145.2    257577.02    1.1622724    48.898819    48.898819    107.72348 
   31100    26647    302.39157   -1832.6205   -2919115.5    24017.954   -2895097.5    257481.64     1.162703    48.884094    48.884094    107.74847 
   31200    26647    299.45128   -261.18508   -2919177.2    23784.416   -2895392.8    257632.62    1.1620216    48.892754    48.892754    107.77347 
   31300    26647    298.09184   -2796.9184   -2919142.8     23676.44   -2895466.3    257941.57    1.1606298    48.916389    48.916389    107.79846 
   31400    26647    299.22723    978.64554   -2919097.1    23766.621   -2895330.5    257991.26    1.1604062     48.91543     48.91543    107.82346 
   31500    26647    300.27955   -2847.3444     -2918997    23850.203   -2895146.8    258146.55    1.1597082    48.924479    48.924479    107.84845 
   31600    26647    299.43171    -694.9534   -2918874.3    23782.862   -2895091.4    258257.93    1.1592081    48.929363    48.929363    107.87344 
   31700    26647    299.86637   -881.32868   -2919183.9    23817.386   -2895366.6    258248.54    1.1592502    48.922807    48.922807    107.89844 
   31800    26647    300.89724   -628.10315   -2919433.3    23899.264   -2895534.1    258088.08    1.1599709    48.901941    48.901941    107.92343 
   31900    26647    298.67827   -780.90626   -2919273.5    23723.019   -2895550.5     257697.5     1.161729    48.859267    48.859267    107.94842 
   32000    26647    300.73649    52.588737   -2919233.2    23886.496   -2895346.7    257343.25    1.1633283    48.820021    48.820021    107.97342 
   32100    26647    302.72007   -1287.7873   -2919183.3    24044.045   -2895139.3    257253.18    1.1637355    48.805829    48.805829    107.99841 
   32200    26647    302.36741    1642.7768     -2919229    24016.035   -2895212.9    257095.25    1.1644504      48.7852      48.7852    108.02341 
   32300    26647    299.47611    -486.4412   -2919179.7    23786.389   -2895393.3    257039.15    1.1647046    48.774235    48.774235     108.0484 
   32400    26647    297.75684   -94.643683   -2919017.3    23649.832   -2895367.4    257368.49    1.1632142    48.799828    48.799828    108.07339 
   32500    26647    299.88816   -1700.8621   -2919011.1    23819.116   -2895191.9    257559.97    1.1623494    48.812334    48.812334    108.09839 
   32600    26647    300.47175    1218.6284   -2918985.3    23865.469   -2895119.8    257753.59    1.1614762    48.825034    48.825034    108.12338 
   32700    26647    300.12793   -960.03295   -2919242.1     23838.16   -2895403.9    258083.38    1.1599921    48.850613    48.850613    108.14838 
   32800    26647     297.8261   -934.04638   -2919234.9    23655.334   -2895579.6    258552.51    1.1578873    48.889343    48.889343    108.17337 
   32900    26647    299.41864   -253.71655   -2919174.5    23781.824   -2895392.6     258736.4    1.1570644    48.901076    48.901076    108.19836 
   33000    26647    301.85854   -629.70142   -2919170.9    23975.617   -2895195.3    258795.11    1.1568019    48.900977    48.900977    108.22336 
   33100    26647    300.37038    1611.1288   -2919007.7    23857.417   -2895150.3    258581.19    1.1577589    48.875119    48.875119    108.24835 
   33200    26647     300.8579    1557.8933   -2919026.3    23896.139   -2895130.2    258280.95    1.1591047    48.841097    48.841097    108.27334 
   33300    26647    301.57229   -1374.9557   -2919306.1    23952.881   -2895353.3       258180    1.1595579    48.825916    48.825916    108.29834 
   33400    26647    299.30881    249.47055   -2919330.8      23773.1   -2895557.7    258238.67    1.1592945     48.82583     48.82583    108.32333 
   33500    26647    297.60127   -1051.7303   -2919120.9    23637.476   -2895483.4    258494.02    1.1581493    48.844329    48.844329    108.34833 
   33600    26647    299.91037    1802.4851   -2919032.9     23820.88   -2895212.1    258642.38     1.157485    48.852709    48.852709    108.37332 
   33700    26647    301.97445   -369.38107   -2919093.2    23984.823   -2895108.4    258774.57    1.1568937    48.859558    48.859558    108.39831 
   33800    26647    300.45832      -1826.1   -2919056.1    23864.403   -2895191.7     258899.3    1.1563364    48.865698    48.865698    108.42331 
   33900    26647    298.85924   -1918.1854   -2919055.3    23737.393   -2895317.9    259250.69     1.154769    48.893213    48.893213     108.4483 
   34000    26647    299.00012   -594.79342   -2919035.9    23748.582   -2895287.4     259349.2    1.1543304    48.896868    48.896868     108.4733 
   34100    26647    301.07938   -2634.9122   -2918927.6    23913.731   -2895013.9    259312.74    1.1544927    48.887798    48.887798    108.49829 
   34200    26647    301.73136   -2919.0414   -2918871.5    23965.516     -2894906    259062.87    1.1556062    48.858612    48.858612    108.52328 
   34300    26647    299.67371   -209.66087   -2918922.3    23802.084   -2895120.2    258735.25    1.1570695    48.822086    48.822086    108.54828 
   34400    26647    300.22506   -1869.1063   -2919147.6    23845.875   -2895301.7    258629.59    1.1575422    48.806497    48.806497    108.57327 
   34500    26647    298.64449    -238.0732   -2919093.1    23720.335   -2895372.7    258572.69    1.1577969    48.795513    48.795513    108.59826 
   34600    26647    299.86734   -1209.7168   -2919242.3    23817.462   -2895424.9    258394.27    1.1585964    48.773062    48.773062    108.62326 
   34700    26647    298.26693   -1621.1761   -2919144.6    23690.347   -2895454.2    258367.76    1.1587153    48.764951    48.764951    108.64825 
   34800    26647    298.43049   -1314.6567   -2919070.6    23703.339   -2895367.2     258275.8    1.1591278    48.750664    48.750664    108.67325 
   34900    26647    300.43481   -1153.0232     -2918966    23862.535   -2895103.5    257925.45    1.1607023    48.711987    48.711987    108.69824 
   35000    26647    300.81459    648.46291   -2918909.7    23892.699     -2895017    257740.56    1.1615349    48.688927    48.688927    108.72323 
   35100    26647    300.86291    -1595.974     -2919111    23896.538   -2895214.4    257717.16    1.1616404    48.681121    48.681121    108.74823 
   35200    26647    298.33828    2016.5816   -2919116.1    23696.015   -2895420.1    257768.89    1.1614073    48.680413    48.680413    108.77322 
   35300    26647    298.61015    -2608.389   -2919137.4    23717.608   -2895419.8    258285.37    1.1590849     48.72356     48.72356    108.79822 
   35400    26647    301.80181   -853.22988   -2919249.1    23971.111     -2895278    258340.68    1.1588367    48.723181    48.723181    108.82321 
   35500    26647    301.12687     398.8865   -2919060.8    23917.503   -2895143.3    258270.26    1.1591527    48.710946    48.710946     108.8482 
   35600    26647    301.52283   -589.81145   -2918873.6    23948.952   -2894924.7    258108.04    1.1598812    48.690057    48.690057     108.8732 
   35700    26647    303.36029   -1512.4176   -2918925.1    24094.896   -2894830.2    257960.38    1.1605452     48.67054     48.67054    108.89819 
   35800    26647    299.07507   -1057.6336   -2918877.8    23754.535   -2895123.3    258011.38    1.1603157    48.669767    48.669767    108.92318 
   35900    26647    300.39086   -1162.4506   -2919112.3    23859.044   -2895253.2    258370.18    1.1587044    48.698009    48.698009    108.94818 
   36000    26647    297.57316   -1990.2838     -2919008    23635.244   -2895372.8    258678.86    1.1573217    48.721502    48.721502    108.97317 
   36100    26647    296.52276    1199.3741   -2918886.2    23551.814   -2895334.4    258738.65    1.1570543    48.721546    48.721546    108.99817 
   36200    26647    301.21309   -518.39799   -2918938.5    23924.351   -2895014.1    258857.19    1.1565245    48.727119    48.727119    109.02316 
   36300    26647    301.97728   -1898.9468   -2918923.5    23985.048   -2894938.5    258926.49    1.1562149    48.728056    48.728056    109.04815 
   36400    26647    301.03049   -1506.9302   -2918982.1    23909.848   -2895072.3     258785.1    1.1568466    48.709168    48.709168    109.07315 
   36500    26647    299.64192   -214.19675   -2919063.9    23799.558   -2895264.3    258562.22    1.1578438    48.682611    48.682611    109.09814 
   36600    26647    301.34616   -3633.8868   -2919217.6    23934.921   -2895282.6    258446.37    1.1583628    48.666128    48.666128    109.12314 
   36700    26647     300.5792   -907.82327   -2919120.7    23874.003   -2895246.7    258330.36     1.158883    48.649634    48.649634    109.14813 
   36800    26647    301.94801    165.90909   -2919168.9    23982.723   -2895186.2    258316.45    1.1589454    48.642755    48.642755    109.17312 
   36900    26647    301.95429   -1261.6443   -2919145.4    23983.223   -2895162.2    258340.05    1.1588396    48.639409    48.639409    109.19812 
   37000    26647    300.13289   -1821.2974   -2918999.5    23838.554     -2895161    258308.64    1.1589805    48.630888    48.630888    109.22311 
   37100    26647    300.12553   -464.51938   -2919067.3     23837.97   -2895229.3    258205.95    1.1594414    48.615657    48.615657     109.2481 
   37200    26647    297.44715   -1676.8223   -2919019.9    23625.235   -2895394.6    258464.33    1.1582823    48.634413    48.634413     109.2731 
   37300    26647     298.6927   -1435.6258   -2919181.7    23724.165   -2895457.6    258633.75    1.1575236    48.644787    48.644787    109.29809 
   37400    26647    301.84287   -1905.9056   -2919166.7    23974.372   -2895192.3    258710.21    1.1571815    48.646415    48.646415    109.32309 
   37500    26647    303.15864    438.93109   -2919142.1    24078.879   -2895063.2    258719.44    1.1571402    48.641723    48.641723    109.34808 
   37600    26647    300.07284   -1892.7379   -2918973.2    23833.785   -2895139.5     258969.3    1.1560238    48.659645    48.659645    109.37307 
   37700    26647    299.05729    106.17147   -2918934.7    23753.123   -2895181.6    259175.53    1.1551039    48.673455    48.673455    109.39807 
   37800    26647    299.92103   -364.76369     -2918973    23821.727   -2895151.3    259233.95    1.1548436     48.67338     48.67338    109.42306 
   37900    26647    301.52069    -3209.613   -2918957.5    23948.783   -2895008.7    259402.28    1.1540942    48.683621    48.683621    109.44806 
   38000    26647    301.39026   -412.54892   -2918780.9    23938.423   -2894842.4    259174.59    1.1551081    48.656695    48.656695    109.47305 
   38100    26647    301.49828   -1382.8727   -2918922.2    23947.003   -2894975.2    258971.55    1.1560138     48.63208     48.63208    109.49804 
   38200    26647    298.40106   -1970.0783   -2918905.9    23701.001   -2895204.9    258896.66    1.1563481      48.6195      48.6195    109.52304 
   38300    26647    299.51188    543.03882   -2919036.8     23789.23   -2895247.6    258898.14    1.1563415    48.614092    48.614092    109.54803 
   38400    26647    298.47514   -1895.1548   -2918949.5    23706.885   -2895242.7     258762.1    1.1569494    48.595775    48.595775    109.57302 
   38500    26647    297.93282    413.18023   -2918798.1     23663.81   -2895134.2    258838.91    1.1566061    48.597444    48.597444    109.59802 
   38600    26647    302.40727   -816.52256   -2918839.1    24019.201   -2894819.9    258891.03    1.1563733    48.596796    48.596796    109.62301 
   38700    26647    302.70748   -1730.4654   -2919014.2    24043.046   -2894971.2    259037.43    1.1557198    48.604993    48.604993    109.64801 
   38800    26647    302.12864   -2109.1533     -2919201     23997.07   -2895203.9    258892.43     1.156367    48.585851    48.585851      109.673 
   38900    26647    298.13785   -1280.4801   -2918968.5    23680.095   -2895288.4       258618    1.1575941    48.554561    48.554561    109.69799 
   39000    26647    300.80713    -2198.748   -2919104.6    23892.107   -2895212.5    258501.52    1.1581157    48.538096    48.538096    109.72299 
   39100    26647    299.91658   -2789.6285   -2918949.6    23821.373   -2895128.2    258464.72    1.1582806    48.529115    48.529115    109.74798 
   39200    26647    301.95918   -952.94411     -2918991     23983.61   -2895007.4    258477.04    1.1582254    48.524746    48.524746    109.77298 
   39300    26647    300.09457   -132.53702   -2918876.7    23835.511   -2895041.1    258763.67    1.1569424    48.546117    48.546117    109.79797 
   39400    26647    300.13306   -2171.1512   -2919079.7    23838.568   -2895241.1    258978.05    1.1559847    48.560696    48.560696    109.82296 
   39500    26647    298.51144   -989.84913   -2919112.3    23709.768   -2895402.5    258723.38    1.1571226    48.531291    48.531291    109.84796 
   39600    26647    299.08092   -83.074718   -2919055.6        23755   -2895300.6    258725.39    1.1571136    48.525959    48.525959    109.87295 
   39700    26647     299.9098   -938.62204   -2918909.8    23820.835     -2895089    258926.86    1.1562133    48.539329    48.539329    109.89794 
   39800    26647    303.35582   -1441.2361   -2919027.3    24094.541   -2894932.8    258846.16    1.1565738    48.526246    48.526246    109.92294 
   39900    26647    300.05394   -2084.8387   -2918854.1    23832.283   -2895021.9    258768.27    1.1569219     48.51343     48.51343    109.94793 
   40000    26647    300.15703   -2421.0316   -2919056.7    23840.472   -2895216.3    258834.31    1.1566267    48.514106    48.514106    109.97293 
   40100    26647    296.96486   -798.46668   -2918925.9    23586.929     -2895339    258376.81    1.1586747    48.465704    48.465704    109.99792 
   40200    26647    299.15865   -235.43439   -2919108.1    23761.174   -2895346.9    258067.26    1.1600645    48.431162    48.431162    110.02291 
   40300    26647     300.2577    29.411691   -2918939.5    23848.468     -2895091    258084.45    1.1599872    48.427274    48.427274    110.04791 
   40400    26647    299.65451    998.46821   -2918763.7    23800.558   -2894963.1    258404.81    1.1585491     48.45182     48.45182     110.0729 
   40500    26647    301.05521   -1200.5266   -2918912.6    23911.811   -2895000.8    258656.33    1.1574226    48.469891    48.469891     110.0979 
   40600    26647    300.59061    780.68335   -2919059.7     23874.91   -2895184.8    258900.46    1.1563312    48.487256    48.487256    110.12289 
   40700    26647    298.73401   -768.42977   -2918913.1    23727.446   -2895185.7    259127.24    1.1553192    48.502984    48.502984    110.14788 
   40800    26647    302.42647    -715.4223   -2919112.5    24020.726   -2895091.7    259002.17    1.1558771    48.485776    48.485776    110.17288 
   40900    26647    299.06472   -817.12265   -2918933.3    23753.713   -2895179.6    258659.63    1.1574078    48.448208    48.448208    110.19787 
   41000    26647    300.31286    -134.4327   -2919125.8    23852.849     -2895273     258470.3    1.1582556    48.424983    48.424983    110.22286 
   41100    26647    298.57092   -224.41363   -2918989.8    23714.492   -2895275.3    258291.93    1.1590554    48.402784    48.402784    110.24786 
   41200    26647    300.96942    -1330.581   -2919048.8    23904.997   -2895143.8    258273.07    1.1591401    48.395531    48.395531    110.27285 
   41300    26647    298.96047   -744.46185   -2918795.2    23745.433   -2895049.8    258194.68     1.159492    48.382703    48.382703    110.29785 
   41400    26647    300.85742    103.41415   -2918889.9    23896.101   -2894993.8    258068.59    1.1600585    48.365408    48.365408    110.32284 
   41500    26647    297.86043   -1.4851321     -2918779     23658.06   -2895120.9    257855.94    1.1610152    48.340002    48.340002    110.34783 
   41600    26647    299.30319   -1603.9587   -2919080.8    23772.654   -2895308.1    257848.89     1.161047    48.333867    48.333867    110.37283 
   41700    26647    296.60088   -651.19089     -2918873    23558.019     -2895315    258119.43      1.15983    48.353743    48.353743    110.39782 
   41800    26647    302.45012   -2133.0291   -2918976.4    24022.604   -2894953.8    258472.95    1.1582437    48.381367    48.381367    110.42282 
   41900    26647    301.25126   -1974.0535   -2918872.4    23927.382     -2894945    258731.57     1.157086    48.400089    48.400089    110.44781 
   42000    26647    300.74666   -1890.5685   -2918987.2    23887.304   -2895099.9    259066.85    1.1555885    48.425959    48.425959     110.4728 
   42100    26647    299.38949   -941.96432   -2918993.9    23779.508   -2895214.4    259253.03    1.1547586    48.437878    48.437878     110.4978 
   42200    26647    299.39848   -2595.3271     -2918959    23780.223   -2895178.8    259223.96    1.1548881    48.429685    48.429685    110.52279 
   42300    26647    301.96955     427.3434   -2918922.2    23984.434   -2894937.8    258997.78    1.1558967     48.40308     48.40308    110.54778 
   42400    26647    302.93476   -2223.6086   -2918828.7    24061.097   -2894767.6     258967.4    1.1560323    48.394771    48.394771    110.57278 
   42500    26647    300.99619   -804.75228   -2918887.6    23907.123   -2894980.5    258931.26    1.1561936    48.385925    48.385925    110.59777 
   42600    26647    298.01542    1258.9243   -2918850.1    23670.371   -2895179.8    259273.43    1.1546678    48.412415    48.412415    110.62277 
   42700    26647    300.63073    78.141715   -2919093.4    23878.096   -2895215.3     259626.2    1.1530988    48.439867    48.439867    110.64776 
   42800    26647     299.9441    -1036.308   -2918977.8    23823.559   -2895154.3     259850.6    1.1521031    48.455324    48.455324    110.67275 
   42900    26647    303.82345   -341.01315   -2919144.2    24131.683   -2895012.6    260002.65    1.1514293    48.464027    48.464027    110.69775 
   43000    26647    301.32971    -2115.062   -2918776.2    23933.614   -2894842.5    260051.99    1.1512108    48.463154    48.463154    110.72274 
   43100    26647    300.93008   -1443.7816   -2918908.5    23901.872   -2895006.6    259876.89    1.1519865    48.441368    48.441368    110.74774 
   43200    26647    300.01342   -2738.4959     -2919082    23829.066   -2895252.9     259969.5    1.1515761    48.444533    48.444533    110.77273 
   43300    26647    297.15307   -1388.0676   -2918871.7    23601.877   -2895269.9    260147.82    1.1507868    48.455678    48.455678    110.79772 
   43400    26647    299.00389   -4534.9754   -2918855.5    23748.881   -2895106.6    260347.82    1.1499027    48.468835    48.468835    110.82272 
   43500    26647    300.56498   -1779.9132   -2918801.2    23872.874   -2894928.3    260168.51    1.1506953    48.446677    48.446677    110.84771 
   43600    26647    300.31709   -3955.5635   -2918793.3    23853.185   -2894940.1    260131.26      1.15086    48.437749    48.437749     110.8727 
   43700    26647    299.80566    799.17533   -2918790.6    23812.564   -2894978.1     260272.4    1.1502359    48.445428    48.445428     110.8977 
   43800    26647    300.38243    -921.2629   -2918879.7    23858.374   -2895021.3    260411.97    1.1496195    48.452955    48.452955    110.92269 
   43900    26647    300.45549    853.65382   -2918996.5    23864.177   -2895132.3    260220.47    1.1504655     48.42968     48.42968    110.94769 
   44000    26647    298.47937   -2081.4168   -2919082.1    23707.221   -2895374.9    260123.48    1.1508944    48.415201    48.415201    110.97268 
   44100    26647    298.53876    1449.9241   -2919197.2    23711.938   -2895485.2    259903.46    1.1518687    48.389273    48.389273    110.99767 
   44200    26647    298.25022   -1249.3983     -2918930    23689.021     -2895241    259854.94    1.1520838    48.379309    48.379309    111.02267 
   44300    26647    301.65401   -186.22677   -2918892.5    23959.372   -2894933.1     259769.6    1.1524623     48.36592     48.36592    111.04766 
   44400    26647    299.49623   -920.99563   -2918827.7    23787.986   -2895039.7    259797.21    1.1523398    48.363048    48.363048    111.07266 
   44500    26647    299.68889   -2153.0043   -2919018.8    23803.289   -2895215.5    259508.34    1.1536225    48.330716    48.330716    111.09765 
   44600    26647    299.42553    988.57602   -2919150.8    23782.371   -2895368.5     259116.5     1.155367    48.288782    48.288782    111.12264 
   44700    26647    297.49136     556.6209   -2919080.2    23628.747   -2895451.5    259063.45    1.1556037    48.278409    48.278409    111.14764 
   44800    26647    299.08367   -3036.5174   -2918874.7    23755.218   -2895119.5     259256.2    1.1547445    48.290938    48.290938    111.17263 
   44900    26647    302.75274   -4307.9079   -2919021.1     24046.64   -2894974.5    259449.59    1.1538838    48.303515    48.303515    111.19762 
   45000    26647    301.73618   -2305.3169   -2919131.4    23965.898   -2895165.5    259513.52    1.1535995    48.304038    48.304038    111.22262 
   45100    26647    298.16066   -157.63207   -2918964.4    23681.907   -2895282.5    259610.86     1.153167    48.307669    48.307669    111.24761 
   45200    26647    299.74732   -834.98618   -2919021.6     23807.93   -2895213.7    259848.18    1.1521138    48.324315    48.324315    111.27261 
   45300    26647      300.162   -1110.9985   -2918898.7    23840.867   -2895057.9    260200.36    1.1505544    48.351622    48.351622     111.2976 
   45400    26647     302.0141    195.01722   -2918838.7    23987.972   -2894850.7    260352.73    1.1498811    48.360347    48.360347    111.32259 
   45500    26647    302.63973   -1641.5994   -2918845.3    24037.665   -2894807.6     260514.7    1.1491661    48.369958    48.369958    111.34759 
   45600    26647    299.81113   -1056.7464     -2918953    23812.998     -2895140    260306.58    1.1500849    48.345208    48.345208    111.37258 
   45700    26647    300.00473   -973.93495   -2919043.4    23828.375   -2895215.1    259832.47    1.1521835    48.295742    48.295742    111.39758 
   45800    26647     300.5659   -1644.5542   -2919002.6    23872.947   -2895129.7    259688.01    1.1528244    48.276899    48.276899    111.42257 
   45900    26647    302.08122   -2033.9116   -2918990.2    23993.304   -2894996.9    259943.09    1.1516931    48.295187    48.295187    111.44756 
   46000    26647    301.55596   -2228.0541   -2918969.9    23951.584   -2895018.3    260000.03    1.1514409    48.295061    48.295061    111.47256 
   46100    26647    300.38617   -2487.7709   -2919165.1    23858.672   -2895306.4    260076.52    1.1511023     48.29675     48.29675    111.49755 
   46200    26647    299.39173   -2322.0991   -2919201.1    23779.686   -2895421.4    260133.97     1.150848    48.296672    48.296672    111.52254 
   46300    26647    301.42623    872.87833   -2919280.8     23941.28   -2895339.5    260181.59    1.1506374     48.29568     48.29568    111.54754 
   46400    26647     298.3316     112.8567   -2918808.1    23695.484   -2895112.6    260374.68    1.1497841    48.308186    48.308186    111.57253 
   46500    26647    300.10758   -795.41888   -2918729.9    23836.544   -2894893.4     260621.4    1.1486957    48.325655    48.325655    111.59753 
   46600    26647    301.00636   -2019.0441   -2918857.8    23907.931   -2894949.9    260988.59    1.1470795    48.354272    48.354272    111.62252 
   46700    26647    297.75847   -1426.2756   -2918816.3    23649.962   -2895166.4     261380.4      1.14536    48.385138    48.385138    111.64751 
   46800    26647    300.96806    259.44458   -2919092.9     23904.89     -2895188    261596.96    1.1444119    48.399761    48.399761    111.67251 
   46900    26647    302.57504   -1463.8089   -2919093.8    24032.526   -2895061.2    261448.15    1.1450633    48.380578    48.380578     111.6975 
   47000    26647    303.07129   -1660.7364   -2918835.2    24071.941   -2894763.3    261478.24    1.1449315     48.37795     48.37795     111.7225 
   47100    26647    302.64441   -614.19713   -2918771.2    24038.036   -2894733.2    261166.33    1.1462989     48.34368     48.34368    111.74749 
   47200    26647     301.4615   -3207.1871   -2918962.5    23944.082   -2895018.4    261138.93    1.1464191    48.335739    48.335739    111.77248 
   47300    26647    298.85191   -2078.1244   -2918861.5    23736.811   -2895124.7    260728.47    1.1482239    48.292337    48.292337    111.79748 
   47400    26647    297.30824   -1384.9654   -2918838.8    23614.202   -2895224.6    260592.22    1.1488243    48.274322    48.274322    111.82247 
   47500    26647    299.53536   -904.25114   -2919008.9    23791.095   -2895217.8    260396.96    1.1496858     48.25084     48.25084    111.84746 
   47600    26647    302.45401   -1277.8863   -2919153.1    24022.913   -2895130.2    260277.56    1.1502132    48.234388    48.234388    111.87246 
   47700    26647    301.28792    1053.8187   -2918982.8    23930.294   -2895052.5    260112.91    1.1509412    48.213743    48.213743    111.89745 
   47800    26647     298.3097   -3754.9426   -2918826.4    23693.745   -2895132.7     260151.3    1.1507714    48.211918    48.211918    111.92245 
   47900    26647    298.19978    2199.6743   -2918965.8    23685.014   -2895280.8     259956.6    1.1516333    48.188492    48.188492    111.94744 
   48000    26647    298.85847   -1753.5633   -2919056.8    23737.331   -2895319.5    259844.23    1.1521313    48.172699    48.172699    111.97243 
   48100    26647    301.16447   -889.04534   -2918957.5     23920.49   -2895037.1     259840.4    1.1521483    48.166969    48.166969    111.99743 
   48200    26647    300.16321   -1804.8101   -2918801.2    23840.962   -2894960.2     260026.4    1.1513241     48.17883     48.17883    112.02242 
   48300    26647    300.73374   -356.35489   -2918968.3    23886.278     -2895082    260216.62    1.1504825    48.191072    48.191072    112.04742 
   48400    26647    299.92299    -873.2227   -2918987.1    23821.883   -2895165.3    260521.08     1.149138     48.21388     48.21388    112.07241 
   48500    26647    298.04521   -2090.6792   -2918820.5    23672.737   -2895147.7    260873.03    1.1475877    48.241057    48.241057     112.0974 
   48600    26647    300.35523   -191.59033   -2918947.3    23856.214   -2895091.1    260981.62    1.1471101    48.245718    48.245718     112.1224 
   48700    26647    299.67615   -266.42081   -2918899.2    23802.277     -2895097    261167.96    1.1462917    48.257561    48.257561    112.14739 
   48800    26647    298.66558   -263.92982   -2918816.2    23722.011   -2895094.2    261483.32    1.1449093    48.281307    48.281307    112.17238 
   48900    26647    302.41325   -662.98664   -2918974.1    24019.675   -2894954.4    261761.85     1.143691    48.301634    48.301634    112.19738 
   49000    26647    301.79563    507.35954   -2918806.6    23970.621   -2894835.9     261626.3    1.1442835    48.283748    48.283748    112.22237 
   49100    26647    302.04705   -3217.2654   -2918778.4    23990.589   -2894787.8    261427.45    1.1451539    48.260021    48.260021    112.24737 
   49200    26647    299.43865    620.29749   -2918752.8    23783.413   -2894969.4    261149.61    1.1463723    48.229001    48.229001    112.27236 
   49300    26647    301.25614   -1915.1285   -2919109.3     23927.77   -2895181.5    261089.26    1.1466372    48.218061    48.218061    112.29735 
   49400    26647    298.66513   -175.03138   -2918999.1    23721.975   -2895277.1    260735.48    1.1481931     48.18002     48.18002    112.32235 
   49500    26647    300.45863    907.56466     -2919003    23864.427   -2895138.6    260325.22    1.1500025    48.136746    48.136746    112.34734 
   49600    26647    301.12562    55.338542   -2918917.6    23917.403   -2895000.2     259917.8    1.1518052    48.093713    48.093713    112.37234 
   49700    26647    302.37199    725.28831   -2919022.3    24016.398   -2895005.9    259729.07    1.1526421    48.070903    48.070903    112.39733 
   49800    26647    301.57564    631.79094   -2919013.8    23953.147   -2895060.7    259784.94    1.1523943    48.070729    48.070729    112.42232 
   49900    26647    300.58397   -1829.2778   -2919060.1    23874.382   -2895185.7     259919.7    1.1517968    48.077851    48.077851    112.44732 
   50000    26647    298.26128    1144.8552   -2919132.4    23689.899   -2895442.5    259989.68    1.1514867     48.07898     48.07898    112.47231 
   50100    26647    299.75414   -337.55818   -2919210.5    23808.472     -2895402    260031.46    1.1513017    48.077502    48.077502     112.4973 
   50200    26647    301.53402   -1932.6329   -2919000.9    23949.842     -2895051    260170.63    1.1506859    48.085024    48.085024     112.5223 
   50300    26647    299.64934   -2091.3644   -2918770.9    23800.148   -2894970.8    260343.34    1.1499225     48.09564     48.09564    112.54729 
   50400    26647    300.47547   -2332.4887   -2918831.6    23865.765   -2894965.9    260446.19    1.1494684    48.099799    48.099799    112.57229 
   50500    26647    300.48213    1518.7099   -2918871.3    23866.293     -2895005    260546.65    1.1490252    48.103735    48.103735    112.59728 
   50600    26647    298.12149   -1610.0829   -2918911.9    23678.796   -2895233.1    260493.82    1.1492582     48.09352     48.09352    112.62227 
   50700    26647    296.66373    1300.8758   -2918902.3     23563.01   -2895339.3    260171.82    1.1506806    48.058454    48.058454    112.64727 
   50800    26647    297.59783   -2758.2362   -2918784.9    23637.203   -2895147.7    260391.06    1.1497118    48.073366    48.073366    112.67226 
   50900    26647    298.78442    1883.3786   -2918740.3     23731.45   -2895008.9    260389.91    1.1497169    48.067929    48.067929    112.69726 
   51000    26647    300.98922   -2050.9077   -2918893.1     23906.57   -2894986.5    260541.42    1.1490483     48.07658     48.07658    112.72225 
   51100    26647     300.2088   -2866.4689   -2918883.5    23844.584   -2895038.9    260764.77    1.1480641    48.091851    48.091851    112.74724 
   51200    26647     299.9097   -31.012078   -2918980.5    23820.827   -2895159.7    260913.05    1.1474116    48.100192    48.100192    112.77224 
   51300    26647    297.21851   -3016.9078     -2918922    23607.075   -2895314.9    260878.34    1.1475643    48.091663    48.091663    112.79723 
   51400    26647    299.56718   -445.98906   -2918935.9    23793.622   -2895142.3    260898.12    1.1474773    48.088158    48.088158    112.82222 
[...]
  587600    26647    298.81289     1237.641   -2920064.8    23733.711   -2896331.1    561400.67   0.53326382    47.690225    47.690225    246.83923 
  587700    26647    301.00536     777.4015   -2920343.3    23907.852   -2896435.5    561608.07   0.53306689    47.696619    47.696619    246.86423 
  587800    26647    298.22605    595.00922   -2920359.7    23687.101   -2896672.6    562026.95    0.5326696    47.711987    47.711987    246.88922 
  587900    26647     297.8174   -223.98471   -2920315.3    23654.643   -2896660.6    562321.98   0.53239013    47.722093    47.722093    246.91421 
  588000    26647    299.86417    9.9086899   -2920229.4    23817.211   -2896412.2    562302.53   0.53240854    47.718853    47.718853    246.93921 
  588100    26647    299.76385     199.2942   -2920152.9    23809.243   -2896343.7    562415.46   0.53230163     47.72123     47.72123     246.9642 
  588200    26647    300.26679    445.41467   -2920285.6     23849.19   -2896436.4     562782.3   0.53195467    47.734375    47.734375     246.9892 
  588300    26647    300.14416   -451.64023   -2920398.4     23839.45   -2896558.9    562948.06   0.53179804    47.738988    47.738988    247.01419 
  588400    26647     299.8129    1614.9259   -2920376.5    23813.139   -2896563.3    562870.74   0.53187108    47.733295    47.733295    247.03918 
  588500    26647    300.15624    271.23404   -2920087.8    23840.409   -2896247.4    562814.81   0.53192393    47.728509    47.728509    247.06418 
  588600    26647    300.92668    267.09298   -2920036.7    23901.603   -2896135.1    562478.41   0.53224207     47.71183     47.71183    247.08917 
  588700    26647    301.33579    143.08088     -2920250    23934.097   -2896315.9    562163.05   0.53254064     47.69604     47.69604    247.11416 
  588800    26647    299.45342     540.7379   -2920261.9    23784.586   -2896477.3    561902.25   0.53278782    47.682564    47.682564    247.13916 
  588900    26647    299.42377    327.83353     -2920283    23782.231   -2896500.8    561266.22   0.53339157    47.653161    47.653161    247.16415 
  589000    26647    298.88257    285.00524   -2920297.1    23739.246   -2896557.8    560938.28   0.53370341    47.636829    47.636829    247.18915 
  589100    26647     301.4191   -123.05869     -2920444    23940.714   -2896503.3    560865.68   0.53377249    47.631338    47.631338    247.21414 
  589200    26647     300.3691    185.83323   -2920295.6    23857.316   -2896438.3    560757.22   0.53387573    47.624325    47.624325    247.23913 
  589300    26647    300.00599   -59.634202     -2920216    23828.475   -2896387.5    561057.49   0.53359001    47.634666    47.634666    247.26413 
  589400    26647    300.55679    1717.5117   -2920265.1    23872.223   -2896392.9     561576.3   0.53309705    47.654276    47.654276    247.28912 
  589500    26647    298.84178   -507.74138   -2920229.8    23736.006   -2896493.8    562261.11   0.53244776    47.680914    47.680914    247.31412 
  589600    26647    299.24827   -715.90412   -2920331.6    23768.292   -2896563.3    562600.52   0.53212654    47.692893    47.692893    247.33911 
  589700    26647    300.51964   -594.41835   -2920266.1    23869.273   -2896396.8    563439.49   0.53133419    47.726029    47.726029     247.3641 
  589800    26647    302.65052    540.80416   -2920251.7    24038.521   -2896213.2    563686.84   0.53110105    47.734092    47.734092     247.3891 
  589900    26647    299.97286   -70.998414   -2920130.7    23825.843   -2896304.9    563897.79   0.53090236    47.740612    47.740612    247.41409 
  590000    26647    297.89047    139.59564     -2920282    23660.447   -2896621.6    563804.09   0.53099059    47.734234    47.734234    247.43908 
  590100    26647    296.87761   -1211.9745   -2920172.3    23579.998   -2896592.3    564173.98   0.53064246    47.747479    47.747479    247.46408 
  590200    26647    301.24735   -514.38565   -2920386.6    23927.073   -2896459.5    564292.87   0.53053066    47.750098    47.750098    247.48907 
  590300    26647    300.73443    267.39788   -2920326.9    23886.333   -2896440.5    564179.32   0.53063744    47.742883    47.742883    247.51407 
  590400    26647    297.80187    183.12175   -2920154.6    23653.409   -2896501.2    563926.25   0.53087557    47.729764    47.729764    247.53906 
  590500    26647    300.43994     611.5757   -2920281.1    23862.942   -2896418.2    563169.72   0.53158871     47.69533     47.69533    247.56405 
  590600    26647    301.44646    985.12761   -2920245.7    23942.887   -2896302.9    562640.29   0.53208893    47.670499    47.670499    247.58905 
  590700    26647    300.82891   -753.43355   -2920217.1    23893.837   -2896323.3    562546.08   0.53217804    47.664102    47.664102    247.61404 
  590800    26647    299.38469    689.36518   -2920330.3    23779.127   -2896551.2    562381.47    0.5323338    47.654723    47.654723    247.63904 
  590900    26647      299.194   -86.152553   -2920490.4    23763.982   -2896726.4    562430.29    0.5322876    47.654387    47.654387    247.66403 
  591000    26647    297.63373    228.33322   -2920305.5    23640.054   -2896665.4    562176.19   0.53252819    47.641217    47.641217    247.68902 
  591100    26647      298.423   -284.66795   -2920190.2    23702.744   -2896487.4    562077.56   0.53262164    47.634634    47.634634    247.71402 
  591200    26647    301.83025   -726.42697   -2920379.2     23973.37   -2896405.8    561659.38    0.5330182    47.614509    47.614509    247.73901 
  591300    26647    301.25207    675.18133   -2920378.6    23927.447   -2896451.2    561546.53   0.53312531    47.607324    47.607324      247.764 
  591400    26647    297.57327    355.86601   -2920214.7    23635.252   -2896579.5       562343   0.53237023    47.638671    47.638671      247.789 
  591500    26647    295.86274    216.21897   -2920227.9    23499.391   -2896728.5    562786.06   0.53195111    47.655031    47.655031    247.81399 
  591600    26647    297.58221   -254.14219   -2920355.9    23635.962   -2896719.9    563503.43   0.53127391    47.682989    47.682989    247.83899 
  591700    26647    301.14477    467.43818   -2920294.9    23918.925     -2896376    564202.21   0.53061591    47.710139    47.710139    247.86398 
  591800    26647    300.81248    1136.4735   -2920127.8    23892.532   -2896235.3    564707.07   0.53014153    47.729074    47.729074    247.88897 
  591900    26647    300.70702   -520.85218   -2920117.1    23884.156   -2896232.9    564824.68   0.53003114    47.731638    47.731638    247.91397 
  592000    26647    298.81959   -579.66793   -2920216.9    23734.243   -2896482.7    565429.12   0.52946454    47.754763    47.754763    247.93896 
  592100    26647    298.39231     358.5798   -2920259.4    23700.306   -2896559.1    565633.52   0.52927322    47.760987    47.760987    247.96396 
  592200    26647    298.54561   -566.38434   -2920174.3    23712.482   -2896461.8    565672.32   0.52923691    47.760218    47.760218    247.98895 
  592300    26647    300.70996    510.17093   -2920228.5    23884.389   -2896344.2    565215.95   0.52966423    47.738543    47.738543    248.01394 
  592400    26647    300.94885   -374.78473   -2920258.2    23903.364   -2896354.8    564544.47   0.53029422    47.707773    47.707773    248.03894 
  592500    26647    298.32808    113.80032   -2920260.4    23695.205   -2896565.2    564383.45   0.53044552    47.698566    47.698566    248.06393 
  592600    26647    297.37176   -128.37466   -2920353.8    23619.247   -2896734.5    564153.39   0.53066183    47.686441    47.686441    248.08892 
  592700    26647    298.52698    4.9308027   -2920303.3    23711.002   -2896592.3    564072.28   0.53073814    47.680611    47.680611    248.11392 
  592800    26647      300.942    363.36714   -2920252.3    23902.819   -2896349.5    564718.91   0.53013042     47.70553     47.70553    248.13891 
  592900    26647    298.56345    738.37404   -2919996.6    23713.899   -2896282.7    565738.59   0.52917492    47.746176    47.746176    248.16391 
  593000    26647    299.84664   -647.62482   -2920113.7    23815.818   -2896297.9    566320.81   0.52863088    47.768333    47.768333     248.1889 
  593100    26647    298.68364   -665.86884   -2920364.6    23723.446   -2896641.1    566782.46   0.52820031    47.785392    47.785392    248.21389 
  593200    26647    298.83452   -591.02845   -2920439.7    23735.429   -2896704.3    566289.75   0.52865988    47.762213    47.762213    248.23889 
  593300    26647    299.63762     800.4276   -2920332.6    23799.217   -2896533.3    565554.04   0.52934759    47.728775    47.728775    248.26388 
  593400    26647    299.83725   -672.47166   -2920247.6    23815.073   -2896432.5    565889.65   0.52903365    47.740531    47.740531    248.28888 
  593500    26647    302.68154    324.11631   -2920440.5    24040.985   -2896399.5    566298.53   0.52865168    47.755372    47.755372    248.31387 
  593600    26647    297.60052    671.21529   -2920327.9    23637.417   -2896690.5    565838.98   0.52908103    47.733589    47.733589    248.33886 
  593700    26647    298.96345   -687.23818   -2920472.1     23745.67   -2896726.4    564885.92   0.52997368    47.690973    47.690973    248.36386 
  593800    26647    301.96698   -64.909793   -2920494.6     23984.23   -2896510.4    564312.85   0.53051188    47.664377    47.664377    248.38885 
  593900    26647    300.16643   -751.77874   -2920223.4    23841.219   -2896382.2    564113.35    0.5306995    47.653553    47.653553    248.41384 
  594000    26647    300.88758   -138.31737     -2920245    23898.497   -2896346.5    564191.12   0.53062635    47.654441    47.654441    248.43884 
  594100    26647    299.58401   -547.11159     -2920208    23794.959   -2896413.1    565089.66    0.5297826    47.689975    47.689975    248.46383 
  594200    26647    301.34627    177.77462   -2920396.6    23934.929   -2896461.7    565872.44   0.52904974    47.720594    47.720594    248.48883 
  594300    26647    299.48839   -490.14671   -2920589.7    23787.364   -2896802.3     565807.9   0.52911009    47.715473    47.715473    248.51382 
  594400    26647    299.06126   -212.08133   -2920593.5    23753.439   -2896840.1       566156   0.52878477    47.727748    47.727748    248.53881 
  594500    26647    298.05448   -503.92022   -2920260.1    23673.473   -2896586.6    566986.08   0.52801062    47.760323    47.760323    248.56381 
  594600    26647    300.04035   -1207.8857   -2920271.6    23831.205   -2896440.4    567528.75   0.52750573    47.780771    47.780771     248.5888 
  594700    26647    299.84006   -98.933726   -2920189.6    23815.296   -2896374.3    567193.02   0.52781797    47.764235    47.764235     248.6138 
  594800    26647    301.90926   -54.016388   -2920294.6    23979.645     -2896315     566686.4   0.52828985    47.740499    47.740499    248.63879 
  594900    26647    299.96001   -324.33328   -2920272.9    23824.823   -2896448.1    566371.56   0.52858351    47.724837    47.724837    248.66378 
  595000    26647    297.26684   -7.4669533   -2920316.8    23610.914   -2896705.9    566314.13   0.52863712    47.720019    47.720019    248.68878 
  595100    26647    299.47395    882.24838   -2920442.4    23786.217   -2896656.2    565708.99    0.5292026     47.69212     47.69212    248.71377 
  595200    26647    301.14402    320.25713   -2920369.3    23918.865   -2896450.4    565577.58   0.52932556    47.684184    47.684184    248.73876 
  595300    26647    299.89267   -264.75428   -2920195.1    23819.475   -2896375.6    565531.59    0.5293686     47.67985     47.67985    248.76376 
  595400    26647    299.33405   -851.78774   -2920228.5    23775.106   -2896453.4     565965.1   0.52896313    47.695725    47.695725    248.78875 
  595500    26647    299.48838    257.65797   -2920256.9    23787.363   -2896469.5    565965.69   0.52896258    47.693354    47.693354    248.81375 
  595600    26647    301.66425    1416.6085   -2920471.5    23960.185   -2896511.3    565565.98   0.52933642    47.674115    47.674115    248.83874 
  595700    26647    300.87291    14.065453   -2920523.1    23897.332   -2896625.8    565863.95   0.52905768    47.684278    47.684278    248.86373 
  595800    26647     299.8142   -663.17576   -2920473.6    23813.242   -2896660.4    566251.71   0.52869539    47.698218    47.698218    248.88873 
  595900    26647    299.18486    531.41985     -2920162    23763.256   -2896398.8    566212.12   0.52873235    47.694156    47.694156    248.91372 
  596000    26647    301.72677    1698.7392   -2920184.6    23965.151   -2896219.5    566223.07   0.52872214    47.692222    47.692222    248.93872 
  596100    26647    301.49489   -270.84572   -2920219.9    23946.734   -2896273.1    566411.44   0.52854629     47.69776     47.69776    248.96371 
  596200    26647    297.25761   -331.50349   -2920104.9     23610.18   -2896494.7    566373.14   0.52858204    47.693754    47.693754     248.9887 
  596300    26647    299.24597    -785.6434     -2920371    23768.109   -2896602.9    566670.69   0.52830449    47.703886    47.703886     249.0137 
  596400    26647    297.83908   -553.29893   -2920212.8    23656.365   -2896556.4    567046.97   0.52795391    47.717327    47.717327    249.03869 
  596500    26647     298.9445    -513.9499   -2920220.6    23744.164   -2896476.4    566939.52   0.52805398    47.710412    47.710412    249.06368 
  596600    26647    300.08013    30.920005     -2920217    23834.364   -2896382.7    567033.44   0.52796652    47.711969    47.711969    249.08868 
  596700    26647    300.32866    751.25202   -2920183.9    23854.104   -2896329.8    567068.55   0.52793383    47.711053    47.711053    249.11367 
  596800    26647    303.21001    1081.2376   -2920316.2     24082.96   -2896233.3    567178.47   0.52783152    47.713283    47.713283    249.13867 
  596900    26647    303.54124    65.032969   -2920335.7    24109.269   -2896226.4    567380.12   0.52764392    47.719371    47.719371    249.16366 
  597000    26647      300.169   -872.62247     -2920355    23841.422   -2896513.6    567467.73   0.52756246    47.720661    47.720661    249.18865 
  597100    26647    300.23137    1359.3214   -2920440.2    23846.376   -2896593.8    567330.12   0.52769042    47.712482    47.712482    249.21365 
  597200    26647     300.5699    1121.3717   -2920366.1    23873.264   -2896492.9    567208.13   0.52780392     47.70496     47.70496    249.23864 
  597300    26647    302.20149   -57.891341   -2920304.7    24002.857   -2896301.8    567026.29   0.52797317    47.694921    47.694921    249.26364 
  597400    26647    300.77078    295.08075   -2919984.8     23889.22   -2896095.5    567009.96   0.52798838    47.691844    47.691844    249.28863 
  597500    26647    301.13233     861.5813   -2920103.9    23917.937   -2896185.9    566952.35   0.52804203     47.68703     47.68703    249.31362 
  597600    26647    299.56462    671.56717   -2920321.6    23793.419   -2896528.1    566524.07   0.52844122    47.666626    47.666626    249.33862 
  597700    26647    301.17238    74.718758   -2920457.7    23921.118   -2896536.6    566880.26   0.52810918    47.679218    47.679218    249.36361 
  597800    26647    299.52111   -730.09954   -2920275.1    23789.963   -2896485.1    567789.58   0.52726341    47.715053    47.715053     249.3886 
  597900    26647    300.56943    1085.7414   -2920198.7    23873.227   -2896325.4    568137.26   0.52694074    47.727268    47.727268     249.4136 
  598000    26647    302.73102   -91.818015   -2920206.8    24044.915   -2896161.9    568298.86   0.52679091    47.731663    47.731663    249.43859 
  598100    26647    299.54978   -150.29108   -2920125.9     23792.24   -2896333.7    568516.49   0.52658925     47.73841     47.73841    249.46359 
  598200    26647    298.53453   -764.53556   -2920319.3    23711.602   -2896607.7    568456.06   0.52664522    47.733482    47.733482    249.48858 
  598300    26647     299.1996   -266.79072   -2920346.8    23764.426   -2896582.4    567741.08   0.52730845    47.701064    47.701064    249.51357 
  598400    26647    299.19001    102.84458     -2920389    23763.664   -2896625.4    567250.41   0.52776457    47.678059    47.678059    249.53857 
  598500    26647    298.14877   -271.48163   -2920448.8    23680.963   -2896767.9    567324.12     0.527696    47.678769    47.678769    249.56356 
  598600    26647    299.07588     306.7326   -2920493.5      23754.6   -2896738.9    567849.68    0.5272076     47.69846     47.69846    249.58856 
  598700    26647    302.18878    1213.5139   -2920427.7    24001.846   -2896425.8    568279.92   0.52680847    47.714137    47.714137    249.61355 
  598800    26647    301.88606   -415.15765   -2920319.6    23977.803   -2896341.8    569314.17   0.52585143    47.755146    47.755146    249.63854 
  598900    26647    301.26388    139.32223   -2920310.7    23928.385   -2896382.4    569204.27   0.52595295    47.748146    47.748146    249.66354 
  599000    26647    300.58555   -245.50427   -2920452.3    23874.508   -2896577.8    568911.09     0.526224    47.733458    47.733458    249.68853 
  599100    26647    297.43248   -431.85382   -2920390.8     23624.07   -2896766.8    568484.82   0.52661858    47.713185    47.713185    249.71352 
  599200    26647    299.11411    1203.9652   -2920357.1    23757.636   -2896599.4    567903.06   0.52715805    47.686378    47.686378    249.73852 
  599300    26647    299.67184   -698.03856   -2920254.4    23801.935   -2896452.4    567963.08   0.52710235    47.686512    47.686512    249.76351 
  599400    26647    300.71587    558.86839   -2920297.8    23884.859     -2896413    568425.43   0.52667361    47.703531    47.703531    249.78851 
  599500    26647    300.64601    147.41677   -2920306.4    23879.309   -2896427.1    568904.48   0.52623011    47.721241    47.721241     249.8135 
  599600    26647    298.74538    210.58062   -2920092.6    23728.349   -2896364.2     569000.3    0.5261415    47.722872    47.722872    249.83849 
  599700    26647    302.12625    328.67534   -2920175.5     23996.88   -2896178.7    568341.89   0.52675102    47.692868    47.692868    249.86349 
  599800    26647    299.71114   -1468.3501   -2920029.9    23805.056   -2896224.8     567902.7   0.52715838    47.672052    47.672052    249.88848 
  599900    26647    298.08198   -471.08446   -2920178.4    23675.657   -2896502.8    567686.69   0.52735897    47.660602    47.660602    249.91348 
  600000    26647    299.02078    333.72475     -2920263    23750.223   -2896512.8    567641.68   0.52740079    47.656329    47.656329    249.93847 
Loop time of 206525 on 28 procs for 600000 steps with 26647 atoms

Performance: 0.063 ns/day, 382.453 hours/ns, 2.905 timesteps/s
98.9% CPU use with 28 MPI tasks x no OpenMP threads

MPI task timing breakdown:
Section |  min time  |  avg time  |  max time  |%varavg| %total
---------------------------------------------------------------
Pair    | 30275      | 1.0547e+05 | 1.4401e+05 |12117.8 | 51.07
Neigh   | 1857.7     | 7604.6     | 13130      |4870.5 |  3.68
Comm    | 179.13     | 25033      | 84508      |15875.7 | 12.12
Output  | 2.7436     | 2.7514     | 2.7601     |   0.3 |  0.00
Modify  | 49057      | 68405      | 1.4714e+05 |11754.9 | 33.12
Other   |            | 13.82      |            |       |  0.01

Nlocal:    951.679 ave 2247 max 0 min
Histogram: 12 0 1 3 0 0 2 2 0 8
Nghost:    7071.75 ave 16328 max 0 min
Histogram: 12 0 0 0 4 4 0 0 0 8
Neighs:    832820 ave 2.09866e+06 max 0 min
Histogram: 12 0 3 1 0 4 0 0 0 8

Total # of neighbors = 23318966
Ave neighs/atom = 875.107
Neighbor list builds = 60000
Dangerous builds not checked
write_restart restart.after_deform
unfix 1
unfix 2
unfix 3
unfix std
unfix bd

Please see the log.cite file for references relevant to this simulation

Total wall time: 57:22:06
