LAMMPS (2 Aug 2019)
# lammps code to equilibrate pmma system
# method adopted from the paper "Toughening of graphene based polymer nanocomposite via tuning chemical functionalization"
# after equilibration create crack and perform tension test
# pmma pnc system has been functionalized - 20 % of -OH functionalization
# cnt is functionalized with -OH group (hydrogen bonding)

units		real
atom_style 	charge
boundary 	p p p
read_data       pmma_pnc_funct.data
  orthogonal box = (-1.46036 -1.54999 4.30649) to (48.5396 48.45 104.306)
  2 by 2 by 7 MPI processor grid
  reading atoms ...
  26738 atoms
  read_data CPU = 0.0834022 secs

pair_style	reax/c control_file lgvdw yes
pair_coeff	* * ffield.reax.lg C C H O H C C C O O C C
Reading potential file ffield.reax.lg with DATE: 2012-01-06

neighbor	4 bin
neigh_modify	every 10 delay 0 check no

thermo 100
thermo_style custom step atoms temp press pe ke etotal vol density lx ly lz      #output variables

fix std all qeq/reax 1 0.0 10.0 1e-6 reax/c
min_style	 cg							#conjugate gradient minimization
minimize	 1.0e-6 1.0e-8 10000 100000
WARNING: Using 'neigh_modify every 1 delay 0 check yes' setting during minimization (../min.cpp:168)
Neighbor list info ...
  update every 1 steps, delay 0 steps, check yes
  max neighbors/atom: 2000, page size: 100000
  master list distance cutoff = 14
  ghost atom cutoff = 14
  binsize = 7, bins = 8 8 15
  2 neighbor lists, perpetual/occasional/extra = 2 0 0
  (1) pair reax/c, perpetual
      attributes: half, newton off, ghost
      pair build: half/bin/newtoff/ghost
      stencil: half/ghost/bin/3d/newtoff
      bin: standard
  (2) fix qeq/reax, perpetual, copy from (1)
      attributes: half, newton off, ghost
      pair build: copy
      stencil: none
      bin: none
Per MPI rank memory allocation (min/avg/max) = 280.3 | 282.3 | 285.8 Mbytes
Step Atoms Temp Press PotEng KinEng TotEng Volume Density Lx Ly Lz 
       0    26738            0    300560.59   -2806773.4            0   -2806773.4       250000    1.2002366           50           50          100 
      25    26738            0     2275.186   -2943927.4            0   -2943927.4       250000    1.2002366           50           50          100 
Loop time of 17.0078 on 28 procs for 25 steps with 26738 atoms

99.7% CPU use with 28 MPI tasks x no OpenMP threads

Minimization stats:
  Stopping criterion = energy tolerance
  Energy initial, next-to-last, final = 
        -2806773.41725     -2943925.47288     -2943927.36844
  Force two-norm initial, final = 39317 6975.01
  Force max component initial, final = 870.895 347.383
  Final line search alpha, max atom move = 0.000204308 0.070973
  Iterations, force evaluations = 25 50

MPI task timing breakdown:
Section |  min time  |  avg time  |  max time  |%varavg| %total
---------------------------------------------------------------
Pair    | 10.435     | 10.819     | 11.048     |   5.3 | 63.61
Neigh   | 0          | 0          | 0          |   0.0 |  0.00
Comm    | 0.030727   | 0.2602     | 0.64248    |  34.1 |  1.53
Output  | 0          | 0          | 0          |   0.0 |  0.00
Modify  | 5.918      | 5.9206     | 5.9228     |   0.0 | 34.81
Other   |            | 0.008091   |            |       |  0.05

Nlocal:    954.929 ave 1005 max 900 min
Histogram: 2 1 2 3 3 6 6 3 1 1
Nghost:    11726.8 ave 11848 max 11628 min
Histogram: 2 3 4 4 3 3 4 3 0 2
Neighs:    950409 ave 996458 max 871804 min
Histogram: 1 1 2 1 1 5 3 8 3 3

Total # of neighbors = 26611443
Ave neighs/atom = 995.267
Neighbor list builds = 0
Dangerous builds not checked


#set of equilibrations to reduce the energy of the system

reset_timestep 0
timestep 0.25
fix npt_equi all npt temp 300.0 300.0 25.0 iso 1.0 1.0 250.0
#fix bd all reax/c/bonds 500 bonds.reaxc_eqbn
dump npt_dump all custom 500 dump.npt id type x y z
run 200000
Per MPI rank memory allocation (min/avg/max) = 280 | 282 | 285.4 Mbytes
Step Atoms Temp Press PotEng KinEng TotEng Volume Density Lx Ly Lz 
       0    26738            0    2275.1824   -2943927.4            0   -2943927.4       250000    1.2002366           50           50          100 
     100    26738    69.681518   -1757.8515   -2948978.8    5553.4719   -2943425.3    250261.46    1.1989827    50.017425    50.017425    100.03485 
     200    26738    90.940471   -1534.3983     -2949369    7247.7662   -2942121.3     247464.8    1.2125326    49.830412    49.830412    99.660825 
     300    26738    104.46236   -810.39796   -2948663.6    8325.4327   -2940338.2    245894.15    1.2202777    49.724764    49.724764    99.449528 
     400    26738    118.91823    360.27905   -2947785.5    9477.5351     -2938308    246271.05    1.2184102    49.750157    49.750157    99.500314 
     500    26738     142.3479   -128.24197   -2947213.6    11344.831   -2935868.8    247066.13    1.2144892    49.803638    49.803638    99.607277 
     600    26738    162.32491     1785.245   -2946039.6    12936.957   -2933102.6    247084.76    1.2143977     49.80489     49.80489    99.609781 
     700    26738    177.24052   -88.910855   -2944191.3      14125.7   -2930065.6       247248    1.2135959    49.815856    49.815856    99.631712 
     800    26738    198.44113    1081.2089   -2942660.7    15815.345   -2926845.4    248916.53    1.2054609    49.927664    49.927664    99.855328 
     900    26738    222.67649    2046.6362   -2941132.2    17746.853   -2923385.3    250656.02    1.1970953    50.043696    50.043696    100.08739 
    1000    26738    243.54343   -2997.9927   -2939297.4    19409.904   -2919887.5    252117.89    1.1901542    50.140796    50.140796    100.28159 
    1100    26738     265.2915    1303.1691   -2937609.6     21143.18   -2916466.4    253054.47    1.1857493    50.202807    50.202807    100.40561 
    1200    26738    284.71992   -2318.4535   -2936034.9    22691.585   -2913343.3    254411.16    1.1794261    50.292364    50.292364    100.58473 
    1300    26738    296.91883    3909.1217   -2934419.1    23663.813   -2910755.3    255346.45     1.175106    50.353919    50.353919    100.70784 
    1400    26738    305.53051    2746.9124   -2933370.1    24350.146   -2909019.9    256516.66    1.1697453    50.430723    50.430723    100.86145 
    1500    26738     305.5752   -431.03592   -2932679.1    24353.707   -2908325.4     257584.9    1.1648942    50.500631    50.500631    101.00126 
    1600    26738    300.59422    923.49667   -2932374.4    23956.734   -2908417.7    258680.23    1.1599617    50.572111    50.572111    101.14422 
    1700    26738    298.40313    1752.0965   -2932391.7    23782.108   -2908609.6    259714.43    1.1553426    50.639417    50.639417    101.27883 
    1800    26738    300.06808    1532.9102   -2932403.9    23914.801   -2908489.1    260467.77    1.1520011    50.688332    50.688332    101.37666 
    1900    26738    302.65503   -1625.8929     -2932517    24120.976   -2908396.1    261111.71    1.1491601    50.730069    50.730069    101.46014 
    2000    26738    301.06005      -569.68   -2932670.9    23993.859   -2908677.1    261443.07    1.1477036    50.751519    50.751519    101.50304 
    2100    26738     300.7789    364.98578     -2933163    23971.452   -2909191.6    261886.25    1.1457614     50.78018     50.78018    101.56036 
    2200    26738    296.88112    244.77339   -2933332.1    23660.807   -2909671.3    262670.96    1.1423385    50.830848    50.830848     101.6617 
    2300    26738    298.71634    328.58359   -2933393.9     23807.07   -2909586.9    264302.06    1.1352887    50.935845    50.935845    101.87169 
    2400    26738    300.81826   -1505.0807   -2933079.9    23974.589   -2909105.4    265595.85    1.1297584    51.018822    51.018822    102.03764 
    2500    26738    303.64553   -781.73596   -2932995.8    24199.917   -2908795.8     266429.9    1.1262218    51.072172    51.072172    102.14434 
    2600    26738    300.43586   -420.78614   -2932967.7    23944.113   -2909023.6    267823.51    1.1203615    51.161064    51.161064    102.32213 
    2700    26738    297.49861    404.97462   -2933046.6     23710.02   -2909336.6    269441.41    1.1136341    51.263877    51.263877    102.52775 
    2800    26738    294.64587    1954.8057   -2932792.6    23482.662     -2909310    271367.41    1.1057302    51.385734    51.385734    102.77147 
    2900    26738    301.83801    278.62223   -2932656.5    24055.861   -2908600.6    273135.55    1.0985723    51.497097    51.497097    102.99419 
    3000    26738    303.23528    1245.9843   -2932186.9    24167.221   -2908019.7    274811.14     1.091874    51.602188    51.602188    103.20438 
    3100    26738    302.45458   -672.53301   -2932015.9        24105   -2907910.9       276485    1.0852638    51.706744    51.706744    103.41349 
    3200    26738    299.95253    931.97721   -2932092.9    23905.592   -2908187.3    278315.69    1.0781252    51.820616    51.820616    103.64123 
    3300    26738    294.93664    886.08183   -2931942.6    23505.836   -2908436.8    280196.23    1.0708893    51.937068    51.937068    103.87414 
    3400    26738    297.34125    628.35657   -2931814.7    23697.478   -2908117.2    281771.53    1.0649023    52.034218    52.034218    104.06844 
    3500    26738    304.65912   -67.407034   -2931764.2    24280.697   -2907483.5     282865.8    1.0607827    52.101491    52.101491    104.20298 
    3600    26738    301.95557    2549.1893   -2931300.3     24065.23   -2907235.1    283381.57     1.058852    52.133138    52.133138    104.26628 
    3700    26738     300.9667    324.23451   -2931346.1    23986.419   -2907359.6    284102.66    1.0561645     52.17732     52.17732    104.35464 
    3800    26738    300.04859   -979.71827   -2931524.1    23913.248   -2907610.9    284863.92    1.0533421    52.223882    52.223882    104.44776 
    3900    26738    298.51707   -664.92782   -2931631.3    23791.189   -2907840.1    285733.73    1.0501356    52.276981    52.276981    104.55396 
    4000    26738    298.71993    -346.0852   -2931737.1    23807.357   -2907929.7    285912.25    1.0494799    52.287867    52.287867    104.57573 
    4100    26738    299.40728   -500.19968   -2931657.1    23862.137     -2907795    286117.04    1.0487287    52.300348    52.300348     104.6007 
    4200    26738    300.72843   -336.07098   -2931580.4     23967.43     -2907613    286140.13    1.0486441    52.301754    52.301754    104.60351 
    4300    26738    300.99677   -217.95692   -2931506.5    23988.816   -2907517.7    285678.35    1.0503391    52.273604    52.273604    104.54721 
    4400    26738    302.27653    403.15201   -2931735.5     24090.81   -2907644.7    284854.05    1.0533786    52.223279    52.223279    104.44656 
    4500    26738    297.97528   -2065.8065   -2931805.8    23748.009   -2908057.8    284002.76     1.056536    52.171203    52.171203    104.34241 
    4600    26738    297.44814    946.58205     -2931910    23705.997     -2908204    283404.24    1.0587673    52.134528    52.134528    104.26906 
    4700    26738    300.00119   -865.45529   -2931931.9     23909.47   -2908022.5    283047.53    1.0601017    52.112646    52.112646    104.22529 
    4800    26738    303.44984   -96.756804   -2932043.9    24184.321   -2907859.6    282294.79    1.0629284    52.066409    52.066409    104.13282 
    4900    26738    299.73052   -1507.6962   -2931959.6    23887.899   -2908071.7    281326.35    1.0665875    52.006801    52.006801     104.0136 
    5000    26738    298.14064   -555.07872   -2932110.9    23761.188   -2908349.7    280287.75    1.0705397    51.942722    51.942722    103.88544 
    5100    26738    298.61785    227.03389   -2932191.3    23799.221   -2908392.1    279413.47    1.0738894    51.888659    51.888659    103.77732 
    5200    26738    299.93635    1080.9684   -2932224.9    23904.303   -2908320.6    278569.08    1.0771445    51.836337    51.836337    103.67267 
    5300    26738    298.57041    3678.1635   -2932044.8     23795.44   -2908249.4    278051.68    1.0791489    51.804224    51.804224    103.60845 
    5400    26738    302.44055   -428.07506   -2932182.3    24103.882   -2908078.4     277812.7    1.0800772    51.789379    51.789379    103.57876 
    5500    26738    300.75089    151.77296   -2932069.2     23969.22     -2908100    277429.99    1.0815671    51.765586    51.765586    103.53117 
    5600    26738    301.42267    452.30768   -2932247.5     24022.76   -2908224.8     277304.7    1.0820558    51.757792    51.757792    103.51558 
    5700    26738    299.44073   -968.82221   -2932363.8    23864.803     -2908499    277368.74    1.0818059    51.761777    51.761777    103.52355 
    5800    26738    298.93088    208.40568   -2932475.3    23824.169   -2908651.1    277431.52    1.0815611    51.765682    51.765682    103.53136 
    5900    26738    297.64629    724.36683   -2932312.5     23721.79   -2908590.7    277686.53    1.0805679    51.781537    51.781537    103.56307 
    6000    26738    302.12508   -1308.8515     -2932416     24078.74   -2908337.2    277807.37    1.0800979    51.789048    51.789048     103.5781 
    6100    26738    300.55257    116.27685   -2932142.8    23953.414   -2908189.3    278218.61    1.0785014    51.814589    51.814589    103.62918 
    6200    26738    301.83123   -382.29356   -2932258.9    24055.321   -2908203.6    278436.75    1.0776564    51.828128    51.828128    103.65626 
    6300    26738    299.78982   -345.98792   -2932240.6    23892.624     -2908348    278841.71    1.0760913    51.853242    51.853242    103.70648 
    6400    26738    300.23191    109.21796     -2932341    23927.859   -2908413.1    279409.37    1.0739051    51.888405    51.888405    103.77681 
    6500    26738    301.40064   -1888.7691   -2932344.1    24021.003   -2908323.1    280041.64    1.0714805    51.927515    51.927515    103.85503 
    6600    26738    300.29576    156.13141   -2932196.7    23932.947   -2908263.8    280264.97    1.0706267    51.941315    51.941315    103.88263 
    6700    26738     299.5222   -1034.2244   -2932244.1    23871.296   -2908372.8    280912.41    1.0681591    51.981281    51.981281    103.96256 
    6800    26738    298.08529    1032.3771   -2932215.2    23756.777   -2908458.4    281517.42    1.0658635    52.018572    52.018572    104.03714 
    6900    26738    300.76705   -1534.2394   -2932395.9    23970.508   -2908425.4    281710.89    1.0651315    52.030486    52.030486    104.06097 
    7000    26738    299.02439    123.52239     -2932371    23831.621   -2908539.4    281753.78    1.0649694    52.033126    52.033126    104.06625 
    7100    26738    298.02345   -327.61066   -2932388.7    23751.849   -2908636.8    281661.13    1.0653197    52.027422    52.027422    104.05484 
    7200    26738    298.75591    1750.8892   -2932363.6    23810.224   -2908553.4    281938.39    1.0642721    52.044488    52.044488    104.08898 
    7300    26738    300.85193    49.232398   -2932320.4    23977.273   -2908343.1    282004.74    1.0640217     52.04857     52.04857    104.09714 
    7400    26738    301.03701   -1525.2682   -2932250.1    23992.023     -2908258     281924.5    1.0643245    52.043634    52.043634    104.08727 
    7500    26738    299.90504    816.80839   -2932221.9    23901.807   -2908320.1    281638.31     1.065406    52.026017    52.026017    104.05203 
    7600    26738    299.66522   -363.18068     -2932268    23882.694   -2908385.3    281254.57    1.0668596    52.002377    52.002377    104.00475 
    7700    26738    299.73131    670.98097   -2932380.9    23887.961     -2908493    281139.82    1.0672951    51.995304    51.995304    103.99061 
    7800    26738    298.57537    94.894333   -2932421.8    23795.835     -2908626    281125.39    1.0673499    51.994414    51.994414    103.98883 
    7900    26738    299.54839   -589.80277     -2932491    23873.383   -2908617.6    281294.31    1.0667089    52.004826    52.004826    104.00965 
    8000    26738    300.31066   -1852.4588   -2932530.6    23934.135   -2908596.5    281086.17    1.0674988    51.991997    51.991997    103.98399 
    8100    26738    299.84063    -1721.858   -2932489.2    23896.674   -2908592.5    280630.97    1.0692303    51.963916    51.963916    103.92783 
    8200    26738    298.26121    120.39845   -2932374.8    23770.797     -2908604    279926.08    1.0719228    51.920371    51.920371    103.84074 
    8300    26738    301.49297   -1082.6712   -2932518.1    24028.362   -2908489.8    279499.56    1.0735586    51.893988    51.893988    103.78798 
    8400    26738    300.31719    1103.5655   -2932473.2    23934.655   -2908538.5    279124.96    1.0749994    51.870793    51.870793    103.74159 
    8500    26738    299.57798   -76.978323   -2932615.2    23875.741   -2908739.5     278776.4    1.0763434    51.849194    51.849194    103.69839 
    8600    26738    300.79721   -205.45152   -2932912.7    23972.912   -2908939.8     277997.7    1.0793584    51.800872    51.800872    103.60174 
    8700    26738    297.25742   -204.91586     -2932871    23690.798   -2909180.2     277371.6    1.0817948    51.761955    51.761955    103.52391 
    8800    26738    296.50479    662.82337   -2932646.1    23630.814   -2909015.3    277613.64    1.0808516    51.777006    51.777006    103.55401 
    8900    26738    303.41861    1381.7776     -2932654    24181.832   -2908472.2    277723.23    1.0804251    51.783818    51.783818    103.56764 
    9000    26738     302.1993   -1964.6394   -2932447.1    24084.655   -2908362.4    277986.45    1.0794021    51.800173    51.800173    103.60035 
    9100    26738    299.56359    1355.0368   -2932451.1    23874.595   -2908576.5    277696.72    1.0805283     51.78217     51.78217    103.56434 
    9200    26738    299.34351   -613.57149   -2932628.3    23857.054   -2908771.2    277406.58    1.0816584     51.76413     51.76413    103.52826 
    9300    26738    301.38563    2566.3998   -2932916.3    24019.808   -2908896.5    276900.29    1.0836361     51.73262     51.73262    103.46524 
    9400    26738     297.9196    310.55655   -2932867.1    23743.572   -2909123.5     276787.8    1.0840765    51.725614    51.725614    103.45123 
    9500    26738    298.27958   -1320.1645   -2932795.2    23772.261   -2909022.9    276858.21    1.0838008    51.729999    51.729999       103.46 
    9600    26738    304.47629   -244.94969   -2932931.2    24266.126   -2908665.1    276635.99    1.0846714    51.716155    51.716155    103.43231 
    9700    26738    299.54419   -1077.0401   -2932509.8    23873.049   -2908636.8    276676.22    1.0845137    51.718662    51.718662    103.43732 
    9800    26738    302.18626   -45.047591   -2932838.5    24083.616   -2908754.9    276450.36    1.0853997    51.704585    51.704585    103.40917 
    9900    26738    299.57811    1258.1701   -2932872.9    23875.751   -2908997.2     276191.9    1.0864155    51.688467    51.688467    103.37693 
   10000    26738    300.44635   -541.95162     -2933151    23944.949     -2909206    276397.08     1.085609    51.701263    51.701263    103.40253 
   10100    26738    297.30879    -732.7827   -2933039.5    23694.892   -2909344.6    276173.79    1.0864867    51.687337    51.687337    103.37467 
   10200    26738    299.20905    1049.2599   -2932994.2    23846.338   -2909147.9    276359.41    1.0857569    51.698914    51.698914    103.39783 
   10300    26738    302.53077    355.64227   -2932927.2    24111.073   -2908816.2    276673.59     1.084524    51.718498    51.718498      103.437 
   10400    26738    300.05956   -802.86404   -2932647.5    23914.123   -2908733.4    276706.23    1.0843961    51.720531    51.720531    103.44106 
   10500    26738    301.93666    738.86717   -2932755.4    24063.724   -2908691.7    276336.02    1.0858489    51.697455    51.697455    103.39491 
   10600    26738    300.81802    676.89302   -2932865.8     23974.57   -2908891.2    276023.65    1.0870777    51.677968    51.677968    103.35594 
   10700    26738    298.32639    162.87507   -2932989.9    23775.992   -2909213.9    275665.41    1.0884904    51.655602    51.655602     103.3112 
   10800    26738    298.02536    906.67291   -2933144.8    23752.001   -2909392.8    275507.26    1.0891152    51.645722    51.645722    103.29144 
   10900    26738    297.71088   -1649.2463   -2932986.6    23726.937   -2909259.6    275478.84    1.0892276    51.643946    51.643946    103.28789 
   11000    26738    301.86377    239.02662     -2933070    24057.914   -2909012.1    275408.24    1.0895068    51.639533    51.639533    103.27907 
   11100    26738    300.54158    543.25177   -2933006.6    23952.538   -2909054.1    275516.78    1.0890776    51.646316    51.646316    103.29263 
   11200    26738    300.11372    519.82442   -2933175.7    23918.438   -2909257.3    275622.84    1.0886585    51.652943    51.652943    103.30589 
   11300    26738    298.38279    -2166.055   -2933171.3    23780.487   -2909390.8    275529.31    1.0890281      51.6471      51.6471     103.2942 
   11400    26738    299.16021    178.23803   -2933093.5    23842.446     -2909251     275355.1    1.0897171    51.636212    51.636212    103.27242 
   11500    26738    300.56745   -461.92163   -2932912.4      23954.6   -2908957.8    275332.92    1.0898049    51.634826    51.634826    103.26965 
   11600    26738    303.19047   -581.07042   -2933018.8    24163.649   -2908855.1    274636.67    1.0925677    51.591265    51.591265    103.18253 
   11700    26738    300.62922    934.42629   -2933027.9    23959.523   -2909068.4    274147.01    1.0945192    51.560585    51.560585    103.12117 
   11800    26738    300.50819    131.49027   -2933156.2    23949.877   -2909206.3    274227.97     1.094196    51.565661    51.565661    103.13132 
   11900    26738    300.68661    1043.6721   -2933309.1    23964.097     -2909345    274148.41    1.0945136    51.560673    51.560673    103.12135 
   12000    26738    298.22359    1479.3367   -2933246.9    23767.799   -2909479.1    274400.89    1.0935065    51.576497    51.576497    103.15299 
   12100    26738    300.11209    2455.8847   -2933327.5    23918.309   -2909409.1    274349.07     1.093713     51.57325     51.57325     103.1465 
   12200    26738    298.27986   -898.16914   -2933098.7    23772.284   -2909326.4    274058.11    1.0948742    51.555011    51.555011    103.11002 
   12300    26738    301.76195    1702.3362   -2933154.8    24049.799     -2909105    273368.78    1.0976351     51.51175     51.51175     103.0235 
   12400    26738    300.53454   -279.78854   -2932981.6    23951.977   -2909029.6    273140.79    1.0985512    51.497426    51.497426    102.99485 
   12500    26738    299.43234    -531.7726   -2933043.8    23864.134   -2909179.6    272974.93    1.0992187       51.487       51.487      102.974 
   12600    26738    300.39112    441.82459   -2933240.6    23940.547   -2909300.1    273085.56    1.0987734    51.493954    51.493954    102.98791 
   12700    26738      298.622   -579.12898   -2933289.4    23799.551   -2909489.9    272854.78    1.0997028    51.479445    51.479445    102.95889 
   12800    26738    298.00892   -78.055378   -2933250.7     23750.69     -2909500    272361.99    1.1016924    51.448435    51.448435    102.89687 
   12900    26738    299.13106   -173.17672   -2933151.2    23840.123   -2909311.1    272336.42    1.1017959    51.446825    51.446825    102.89365 
   13000    26738    304.24263    1076.6659   -2933398.8    24247.504   -2909151.3    272370.77    1.1016569    51.448988    51.448988    102.89798 
   13100    26738    299.33789     950.9582   -2933275.6    23856.606     -2909419    272548.65     1.100938    51.460185    51.460185    102.92037 
   13200    26738    297.96135   -144.28935   -2933481.8      23746.9   -2909734.9    272762.84    1.1000734    51.473662    51.473662    102.94732 
   13300    26738    299.01154    375.45022   -2933473.1    23830.598   -2909642.5    272952.51     1.099309     51.48559     51.48559    102.97118 
   13400    26738    301.49065    1117.6083   -2933351.1    24028.177   -2909322.9    273179.32    1.0983963    51.499847    51.499847    102.99969 
   13500    26738    301.87341   -885.63706   -2933127.4    24058.682   -2909068.7     273210.7    1.0982701    51.501819    51.501819    103.00364 
   13600    26738    304.74729   -527.83318     -2933358    24287.724   -2909070.3    273329.89    1.0977912    51.509308    51.509308    103.01862 
   13700    26738    299.24714   -180.72966     -2933393    23849.374   -2909543.6    273537.91    1.0969564    51.522371    51.522371    103.04474 
   13800    26738    295.82866   -2112.5809   -2933508.3    23576.928   -2909931.4    273622.17    1.0966186    51.527661    51.527661    103.05532 
   13900    26738    300.35549    398.39325   -2933708.8    23937.707   -2909771.1     273321.1    1.0978265    51.508755    51.508755    103.01751 
   14000    26738    298.90103    817.41534     -2933187     23821.79   -2909365.2    273055.52    1.0988943    51.492067    51.492067    102.98413 
   14100    26738     303.8242   -132.91492   -2933203.6    24214.156   -2908989.5    272709.96    1.1002867    51.470336    51.470336    102.94067 
   14200    26738    302.09821    1680.6645   -2933237.4    24076.599   -2909160.8    272059.09     1.102919    51.429356    51.429356    102.85871 
   14300    26738    298.69243    221.89136   -2933418.5    23805.165   -2909613.3    271785.74    1.1040283    51.412125    51.412125    102.82425 
   14400    26738    298.03792     1848.567   -2933667.1    23753.002   -2909914.1    271146.42    1.1066314    51.371782    51.371782    102.74356 
   14500    26738    300.25901    1085.3311   -2933818.1    23930.018   -2909888.1    270949.25    1.1074367    51.359326    51.359326    102.71865 
   14600    26738    300.33387    366.68223   -2933573.9    23935.984   -2909637.9    271437.52    1.1054447    51.390159    51.390159    102.78032 
   14700    26738    301.30991   -1410.0065   -2933389.3    24013.773   -2909375.6    271640.91    1.1046169    51.402992    51.402992    102.80598 
   14800    26738    302.89107    1104.7309   -2933533.4    24139.788   -2909393.6    271540.18    1.1050267    51.396637    51.396637    102.79327 
   14900    26738    300.12399    38.501877   -2933679.6    23919.257   -2909760.4    271598.67    1.1047887    51.400327    51.400327    102.80065 
   15000    26738    297.68855    428.54645   -2933811.3    23725.157   -2910086.2    271741.56    1.1042078    51.409339    51.409339    102.81868 
   15100    26738    297.63911   -241.67806   -2933793.7    23721.217   -2910072.5    271959.33    1.1033236    51.423068    51.423068    102.84614 
   15200    26738    299.29562   -492.33109   -2933621.6    23853.238   -2909768.4    271897.85    1.1035731    51.419193    51.419193    102.83839 
   15300    26738    302.38178    1707.0226     -2933442    24099.199   -2909342.8    271587.61    1.1048337    51.399629    51.399629    102.79926 
   15400    26738    303.81099    1862.0304   -2933296.7    24213.103   -2909083.6    271094.42    1.1068437    51.368497    51.368497    102.73699 
   15500    26738    303.41593   -857.24317   -2933422.7    24181.618   -2909241.1    270974.84    1.1073321    51.360943    51.360943    102.72189 
   15600    26738     298.7309   -46.610885   -2933539.5    23808.231   -2909731.3    270965.87    1.1073688    51.360377    51.360377    102.72075 
   15700    26738     298.4255    387.34168   -2933805.1    23783.891   -2910021.2    270862.98    1.1077895    51.353875    51.353875    102.70775 
   15800    26738    298.77552   -552.63198   -2933793.2    23811.787   -2909981.5    270561.15    1.1090253    51.334793    51.334793    102.66959 
   15900    26738    300.08229    1333.7352   -2933679.6    23915.934   -2909763.7    270484.88     1.109338    51.329969    51.329969    102.65994 
   16000    26738    300.62168    895.96082   -2933509.7    23958.922   -2909550.8    270464.71    1.1094207    51.328693    51.328693    102.65739 
   16100    26738    301.75721    2323.1802   -2933492.4    24049.422   -2909442.9    270640.51    1.1087001    51.339811    51.339811    102.67962 
   16200    26738    301.97766   -746.69551     -2933613    24066.991     -2909546    270808.35    1.1080129    51.350422    51.350422    102.70084 
   16300    26738    300.23984    1122.4931   -2933667.9    23928.491   -2909739.5    270713.74    1.1084001    51.344442    51.344442    102.68888 
   16400    26738    299.32826   -1589.4601   -2933692.3    23855.839   -2909836.5    270656.72    1.1086337    51.340836    51.340836    102.68167 
   16500    26738    300.92938   -1039.3092   -2933713.1    23983.445   -2909729.7       270247    1.1103145    51.314917    51.314917    102.62983 
   16600    26738    301.16683    1406.1264   -2933663.5    24002.369   -2909661.1     270156.2    1.1106876    51.309169    51.309169    102.61834 
   16700    26738    298.32588   -676.28644   -2933506.8    23775.951   -2909730.9    270146.32    1.1107282    51.308544    51.308544    102.61709 
   16800    26738    300.37892   -385.60342   -2933808.5    23939.574   -2909868.9    270156.11     1.110688    51.309163    51.309163    102.61833 
   16900    26738    299.68337    -1284.695   -2933964.5    23884.141   -2910080.4    269729.28    1.1124456    51.282127    51.282127    102.56425 
   17000    26738    297.06716   -2366.9352   -2933938.1    23675.634   -2910262.5    269281.15    1.1142969    51.253711    51.253711    102.50742 
   17100    26738    298.35838    -991.3677   -2933918.3    23778.541   -2910139.8    268946.28    1.1156843    51.232457    51.232457    102.46491 
   17200    26738    300.81525    3.0808637   -2933758.2    23974.349   -2909783.8    268396.27    1.1179707    51.197508    51.197508    102.39502 
   17300    26738     303.0014     290.5592   -2933680.3    24148.581   -2909531.7    268142.73    1.1190277    51.181382    51.181382    102.36276 
   17400    26738    301.21659    -276.9201   -2933588.5    24006.335   -2909582.2     267889.1    1.1200872     51.16524     51.16524    102.33048 
   17500    26738    301.12685   -1433.1177   -2933795.6    23999.183   -2909796.4    268047.38    1.1194258    51.175315    51.175315    102.35063 
   17600    26738    296.90476   -581.14271   -2933772.2    23662.692   -2910109.5    268008.59    1.1195878    51.172846    51.172846    102.34569 
   17700    26738    297.81494     499.8151   -2933896.1    23735.231   -2910160.9    267904.14    1.1200243    51.166198    51.166198     102.3324 
   17800    26738    300.49314    328.09949   -2933917.5    23948.678   -2909968.8    267711.66    1.1208296    51.153941    51.153941    102.30788 
   17900    26738    300.51227   -1220.5337   -2933765.6    23950.202   -2909815.4    267646.83    1.1211011    51.149811    51.149811    102.29962 
   18000    26738    300.77195   -1189.1033   -2933754.3    23970.899   -2909783.4    267401.01    1.1221317    51.134147    51.134147    102.26829 
   18100    26738    301.01875   -146.61939   -2933819.9    23990.568   -2909829.3    267122.64    1.1233011    51.116397    51.116397    102.23279 
   18200    26738    300.13205   -461.69444   -2933844.8      23919.9   -2909924.9    267199.01      1.12298    51.121268    51.121268    102.24254 
   18300    26738    298.23001   -2614.1284   -2933828.6    23768.311   -2910060.3    266872.56    1.1243537     51.10044     51.10044    102.20088 
   18400    26738    299.45053   -780.92488   -2933976.5    23865.584   -2910110.9    267198.47    1.1229823    51.121233    51.121233    102.24247 
   18500    26738    300.17028     1680.906   -2933937.7    23922.946   -2910014.8    267370.58    1.1222594    51.132207    51.132207    102.26441 
   18600    26738    302.06706   -945.25186   -2933925.5    24074.116   -2909851.4    267191.38    1.1230121    51.120781    51.120781    102.24156 
   18700    26738    301.15194   -660.77907   -2933746.7    24001.183   -2909745.5    267064.92    1.1235438    51.112715    51.112715    102.22543 
   18800    26738    302.15958    -326.2901   -2933830.9     24081.49   -2909749.4    266985.76     1.123877    51.107664    51.107664    102.21533 
   18900    26738    297.73953   -656.93488   -2933676.1    23729.221   -2909946.9    266751.94    1.1248621     51.09274     51.09274    102.18548 
   19000    26738    299.52203   -1629.8673   -2933942.2    23871.283   -2910070.9    266496.14    1.1259418    51.076404    51.076404    102.15281 
   19100    26738    297.52497    1265.8272   -2933909.7    23712.121   -2910197.6    266504.71    1.1259056    51.076951    51.076951     102.1539 
   19200    26738    298.78719    1162.4705   -2933985.9    23812.717   -2910173.2    266430.33    1.1262199    51.072199    51.072199     102.1444 
   19300    26738    300.28963   -586.69285   -2933972.9    23932.458   -2910040.4    266595.45    1.1255224    51.082747    51.082747    102.16549 
   19400    26738    299.52585   -83.979663   -2933776.7    23871.587   -2909905.1    266686.26    1.1251392    51.088547    51.088547    102.17709 
   19500    26738    302.76143    814.01167   -2933928.7    24129.456   -2909799.3    266426.63    1.1262356    51.071962    51.071962    102.14392 
   19600    26738    300.65819    2564.3511   -2933902.6    23961.832   -2909940.8    266351.22    1.1265544    51.067144    51.067144    102.13429 
   19700    26738    299.19708     392.9033   -2933969.4    23845.384     -2910124    266288.69     1.126819    51.063147    51.063147    102.12629 
   19800    26738    297.66372   -1617.0614   -2933954.8    23723.179   -2910231.7    266063.64    1.1277721    51.048758    51.048758    102.09752 
   19900    26738     299.2362    80.286668   -2933935.6    23848.502   -2910087.1    265980.48    1.1281247    51.043438    51.043438    102.08688 
   20000    26738     301.7321   -91.454035   -2933860.6     24047.42   -2909813.2    266202.35    1.1271845    51.057627    51.057627    102.11525 
   20100    26738    303.41677    796.40564     -2933879    24181.685   -2909697.3    266463.68     1.126079     51.07433     51.07433    102.14866 
   20200    26738    301.32909   -399.96096     -2934055    24015.302   -2910039.7    266615.81    1.1254365    51.084048    51.084048     102.1681 
   20300    26738    298.46126    1051.4015   -2934285.9    23786.741   -2910499.1    266454.96    1.1261158    51.073773    51.073773    102.14755 
   20400    26738    298.23032    158.61902   -2934433.7    23768.336   -2910665.4    265986.16    1.1281006    51.043802    51.043802     102.0876 
   20500    26738    298.99596     147.3647   -2934273.4    23829.356   -2910444.1    265545.26    1.1299737    51.015583    51.015583    102.03117 
   20600    26738    302.76677   -1925.6693   -2934144.6    24129.881   -2910014.7    265517.87    1.1300902    51.013829    51.013829    102.02766 
   20700    26738    302.02464   -1880.7915   -2933932.5    24070.735   -2909861.7    265590.55     1.129781    51.018483    51.018483    102.03697 
   20800    26738    301.75674   -1467.0597   -2934032.5    24049.384   -2909983.2    265672.51    1.1294324    51.023731    51.023731    102.04746 
   20900    26738    298.00515   -32.591404   -2934064.6     23750.39   -2910314.2     265517.6    1.1300914    51.013812    51.013812    102.02762 
   21000    26738    299.96831    1499.2223   -2934323.1    23906.849   -2910416.3    265276.89    1.1311168    50.998391    50.998391    101.99678 
   21100    26738    298.04315   -2198.4514   -2934130.5    23753.419   -2910377.1    264625.73    1.1339002    50.956629    50.956629    101.91326 
   21200    26738    302.00341   -1046.3813   -2934218.8    24069.043   -2910149.7     264317.2    1.1352237    50.936818    50.936818    101.87364 
   21300    26738    302.32342    2857.3633   -2934079.7    24094.547   -2909985.2    264475.93    1.1345424    50.947012    50.947012    101.89402 
   21400    26738    301.82144   -1268.2874   -2934000.8    24054.541   -2909946.3    264694.54    1.1336054    50.961046    50.961046    101.92209 
   21500    26738    300.10027   -909.33338   -2934029.3    23917.367   -2910111.9    264438.43    1.1347033    50.944604    50.944604    101.88921 
   21600    26738    297.79432    1649.0585   -2934179.8    23733.587   -2910446.2    264384.95    1.1349328     50.94117     50.94117    101.88234 
   21700    26738    298.83342     81.09311   -2934299.2    23816.401   -2910482.8    264412.78    1.1348133    50.942957    50.942957    101.88591 
   21800    26738    299.27729    188.38814   -2934008.7    23851.777   -2910156.9     264418.3    1.1347896    50.943312    50.943312    101.88662 
   21900    26738    302.69602   -667.80889   -2933921.5    24124.242   -2909797.2    264219.61     1.135643    50.930548    50.930548     101.8611 
   22000    26738    302.35268    650.57261   -2933887.5    24096.879   -2909790.6    264137.83    1.1359946    50.925293    50.925293    101.85059 
   22100    26738    300.02836     1070.143     -2934035    23911.635   -2910123.4    263770.08    1.1375784    50.901648    50.901648     101.8033 
   22200    26738    297.40497   -156.27132     -2934165    23702.557   -2910462.4    263323.69    1.1395069    50.872918    50.872918    101.74584 
   22300    26738    298.20272   -95.558937   -2934250.8    23766.136   -2910484.7    263272.42    1.1397288    50.869616    50.869616    101.73923 
   22400    26738    300.02135   -1379.2071   -2934205.8    23911.077   -2910294.7    263400.08    1.1391764    50.877837    50.877837    101.75567 
   22500    26738    300.64091   -1425.6191   -2934104.4    23960.455     -2910144    263365.52    1.1393259    50.875611    50.875611    101.75122 
   22600    26738    302.87601    49.798279   -2934384.8    24138.587   -2910246.2    263212.91    1.1399865    50.865782    50.865782    101.73156 
   22700    26738    298.10368   -1468.8708   -2934325.8    23758.243   -2910567.6    263370.51    1.1393043    50.875932    50.875932    101.75186 
   22800    26738    297.32879   -293.82554   -2934353.1    23696.486   -2910656.6    263179.04    1.1401332    50.863601    50.863601     101.7272 
   22900    26738    300.97517   -923.13348   -2934364.3    23987.094   -2910377.2    263206.48    1.1400143    50.865368    50.865368    101.73074 
   23000    26738    301.11631   -1511.2782   -2934171.6    23998.343   -2910173.2    263323.41    1.1395081      50.8729      50.8729     101.7458 
   23100    26738    299.11581    2102.3456   -2934112.3    23838.907   -2910273.4     263339.1    1.1394402     50.87391     50.87391    101.74782 
   23200    26738    298.60094    1129.4298   -2934221.9    23797.874     -2910424    263309.59    1.1395679     50.87201     50.87201    101.74402 
   23300    26738    300.09532   -3614.1266   -2934304.3    23916.972   -2910387.3    263524.47    1.1386387    50.885844    50.885844    101.77169 
   23400    26738    299.79057   -2543.0981   -2934155.6    23892.684   -2910262.9    263709.88    1.1378381    50.897776    50.897776    101.79555 
   23500    26738    300.63612    -1631.431   -2934121.5    23960.073   -2910161.5    263748.64    1.1376709    50.900269    50.900269    101.80054 
   23600    26738    299.48307   -722.35032   -2934075.9    23868.177   -2910207.7    263812.82    1.1373941    50.904397    50.904397    101.80879 
   23700    26738    300.51915    647.81715   -2934320.4    23950.751   -2910369.7    263778.03    1.1375441    50.902159    50.902159    101.80432 
   23800    26738    298.78263    799.94036   -2934287.1    23812.353   -2910474.8    263741.96    1.1376997    50.899839    50.899839    101.79968 
   23900    26738    301.35648   -1467.1007   -2934421.2    24017.484   -2910403.7     263780.2    1.1375348    50.902299    50.902299     101.8046 
   24000    26738    301.19805   -2001.0901   -2934287.1    24004.858   -2910282.2    263233.58    1.1398969    50.867114    50.867114    101.73423 
   24100    26738    303.41839   -2198.2333   -2934279.3    24181.814   -2910097.5    262976.73    1.1410103    50.850564    50.850564    101.70113 
   24200    26738    300.40309    -1118.502   -2933998.2    23941.501   -2910056.7    262740.82    1.1420348    50.835354    50.835354    101.67071 
   24300    26738    298.97526    41.539226   -2934020.5    23827.706   -2910192.8    262880.99    1.1414258    50.844393    50.844393    101.68879 
   24400    26738    301.07654    709.82635   -2934305.5    23995.174   -2910310.3    263138.83    1.1403074     50.86101     50.86101    101.72202 
   24500    26738    297.33295   -632.92082   -2934177.5    23696.817   -2910480.6    263562.36     1.138475    50.888283    50.888283    101.77657 
   24600    26738    298.23866   -2018.4339   -2934238.3        23769   -2910469.3    263414.28     1.139115    50.878751    50.878751     101.7575 
   24700    26738    299.57291    202.48341   -2934280.2    23875.337   -2910404.8    263213.92    1.1399821    50.865848    50.865848     101.7317 
   24800    26738     300.1825   -264.40354   -2934178.3     23923.92   -2910254.3    263330.78    1.1394762    50.873374    50.873374    101.74675 
   24900    26738    300.79519   -760.75554   -2934187.8     23972.75   -2910215.1    263240.52    1.1398669    50.867561    50.867561    101.73512 
   25000    26738    301.83361    1999.7586   -2934424.7     24055.51   -2910369.2    263153.39    1.1402443    50.861948    50.861948     101.7239 
   25100    26738    297.68764   -343.13395   -2934266.5    23725.085   -2910541.4    263118.33    1.1403962    50.859689    50.859689    101.71938 
   25200    26738     300.2848     1025.112   -2934376.6    23932.073   -2910444.5    263193.05    1.1400725    50.864503    50.864503    101.72901 
   25300    26738     302.1277   -827.89545   -2934428.8    24078.949   -2910349.8    263430.42    1.1390452     50.87979     50.87979    101.75958 
   25400    26738    300.97469   -3249.9417     -2934435    23987.056   -2910447.9     263793.8    1.1374761    50.903174    50.903174    101.80635 
   25500    26738    297.92138    22.812405   -2934332.8    23743.714   -2910589.1     263606.9    1.1382826    50.891149    50.891149     101.7823 
   25600    26738    298.36767   -649.40823   -2934356.7    23779.282   -2910577.4     263303.2    1.1395955    50.871598    50.871598     101.7432 
   25700    26738    299.17707   -647.74131     -2934320    23843.789   -2910476.2    263279.98    1.1396961    50.870102    50.870102     101.7402 
   25800    26738    301.28073   -2873.0127   -2934300.3    24011.447   -2910288.8    262882.63    1.1414187    50.844498    50.844498      101.689 
   25900    26738    302.54709    796.02237   -2934357.2    24112.373   -2910244.8    262704.96    1.1421907    50.833041    50.833041    101.66608 
   26000    26738    301.19085    550.61927     -2934460    24004.284   -2910455.7    262676.77    1.1423132    50.831223    50.831223    101.66245 
   26100    26738    296.32719    162.96325   -2934383.9     23616.66   -2910767.2    262617.81    1.1425697     50.82742     50.82742    101.65484 
   26200    26738    298.97713    2794.4333   -2934588.8    23827.855     -2910761    262139.94    1.1446525    50.796572    50.796572    101.59314 
   26300    26738     300.3351   -2116.4325   -2934509.9    23936.082   -2910573.8    261777.18    1.1462388    50.773129    50.773129    101.54626 
   26400    26738    299.62628   -3143.7974   -2934287.1     23879.59   -2910407.5    261957.31    1.1454506    50.784772    50.784772    101.56954 
   26500    26738    301.57237    4008.2999   -2934338.1     24034.69   -2910303.4     262120.7    1.1447366    50.795328    50.795328    101.59066 
   26600    26738    300.42649    417.32582   -2934233.8    23943.366   -2910290.5    262544.68     1.142888    50.822701    50.822701     101.6454 
   26700    26738    298.18297    548.17011   -2934184.6    23764.562     -2910420    262753.41      1.14198    50.836166    50.836166    101.67233 
   26800    26738    299.84462   -4135.6676   -2934440.9    23896.992   -2910543.9    262996.32    1.1409253    50.851827    50.851827    101.70365 
   26900    26738    298.51732    393.99216   -2934461.7    23791.209   -2910670.4    262912.57    1.1412887    50.846429    50.846429    101.69286 
   27000    26738    297.45625    1162.9828   -2934513.8    23706.644   -2910807.1    262864.68    1.1414967    50.843341    50.843341    101.68668 
   27100    26738    299.10817   -1773.9255   -2934622.8    23838.299   -2910784.5    262812.28    1.1417242    50.839962    50.839962    101.67992 
   27200    26738    301.25942   -389.94596   -2934640.4    24009.749   -2910630.6    262723.72    1.1421091    50.834251    50.834251     101.6685 
   27300    26738    301.34408    981.60972   -2934512.6    24016.496   -2910496.1    262537.08     1.142921    50.822211    50.822211    101.64442 
   27400    26738    301.06065    289.74956   -2934393.4    23993.907   -2910399.5    262461.96    1.1432482    50.817363    50.817363    101.63473 
   27500    26738    299.35269    624.91841   -2934295.8    23857.786     -2910438    262062.48    1.1449909    50.791567    50.791567    101.58313 
   27600    26738    300.17062   -1272.0162   -2934376.2    23922.974   -2910453.2    262101.14     1.144822    50.794065    50.794065    101.58813 
   27700    26738    300.38603   -294.63149     -2934459    23940.141   -2910518.9    261776.68     1.146241    50.773097    50.773097    101.54619 
   27800    26738    299.43232   -231.54987   -2934535.2    23864.133   -2910671.1    261583.29    1.1470884     50.76059     50.76059    101.52118 
   27900    26738    300.08968    3726.4222   -2934711.7    23916.523   -2910795.2    261347.09    1.1481251    50.745308    50.745308    101.49062 
   28000    26738    299.53947   -1539.2071   -2934667.5    23872.672   -2910794.8    261298.63     1.148338    50.742171    50.742171    101.48434 
   28100    26738     300.2213    574.87717   -2934562.4    23927.013   -2910635.4    261250.53    1.1485494    50.739058    50.739058    101.47812 
   28200    26738    300.46074    1856.8979   -2934485.5    23946.095   -2910539.4    261227.47    1.1486508    50.737565    50.737565    101.47513 
   28300    26738    300.78574    453.79438   -2934549.5    23971.997   -2910577.5    261407.47    1.1478599    50.749216    50.749216    101.49843 
   28400    26738    298.77647    3421.4396   -2934522.7    23811.863   -2910710.8    261612.79     1.146959    50.762499    50.762499      101.525 
   28500    26738    300.14101   -1218.3953   -2934680.1    23920.614   -2910759.4    261818.69     1.146057    50.775813    50.775813    101.55163 
   28600    26738    300.70871   -724.48829     -2934612    23965.858   -2910646.2    261668.71    1.1467139    50.766115    50.766115    101.53223 
   28700    26738    301.43623    301.42691   -2934480.3     24023.84   -2910456.5    261204.64    1.1487512    50.736087    50.736087    101.47217 
   28800    26738    301.79517    954.59982   -2934479.1    24052.447   -2910426.6    260782.61    1.1506103    50.708747    50.708747    101.41749 
   28900    26738    301.10142   -694.96208   -2934716.9    23997.156   -2910719.7    260839.53    1.1503592    50.712436    50.712436    101.42487 
   29000    26738    297.51982   -707.71308   -2934756.2     23711.71   -2911044.4    261075.99    1.1493173    50.727755    50.727755    101.45551 
   29100    26738    295.71896    -122.6557   -2934582.2    23568.186     -2911014     261021.2    1.1495586    50.724206    50.724206    101.44841 
   29200    26738    302.31834    1248.0956   -2934718.4    24094.143   -2910624.3    260915.62    1.1500237    50.717366    50.717366    101.43473 
   29300    26738    300.88412    2980.3463     -2934462    23979.838   -2910482.1     260787.6    1.1505883     50.70907     50.70907    101.41814 
   29400    26738     301.2735    1274.4152   -2934517.5    24010.871   -2910506.6    261051.65    1.1494245    50.726179    50.726179    101.45236 
   29500    26738    299.56292   -1801.1269   -2934566.3    23874.541   -2910691.7    261129.42    1.1490822    50.731215    50.731215    101.46243 
   29600    26738    299.86619   -23.253119   -2934662.3    23898.711   -2910763.5    260940.83    1.1499126       50.719       50.719      101.438 
   29700    26738     298.7911   -1185.8001   -2934577.6    23813.029   -2910764.5    260631.22    1.1512786    50.698932    50.698932    101.39786 
   29800    26738    300.99169   -412.84221   -2934623.9    23988.411   -2910635.5    260218.69    1.1531038    50.672169    50.672169    101.34434 
   29900    26738    302.11438    991.17733   -2934563.2    24077.887   -2910485.3    260284.72    1.1528112    50.676455    50.676455    101.35291 
   30000    26738    301.70156   -2924.2293   -2934581.1    24044.986   -2910536.1    260389.88    1.1523457    50.683278    50.683278    101.36656 
   30100    26738    298.81798   -340.79607   -2934578.7    23815.171   -2910763.6    260315.26     1.152676    50.678437    50.678437    101.35687 
   30200    26738    296.82584    1357.0775   -2934606.8    23656.402   -2910950.4    260479.67    1.1519485    50.689103    50.689103    101.37821 
   30300    26738    300.08671    320.62867   -2934919.7    23916.286   -2911003.4    260705.75    1.1509495    50.703764    50.703764    101.40753 
   30400    26738    298.16421   -184.57177   -2934758.5    23763.067   -2910995.5    260751.57    1.1507472    50.706735    50.706735    101.41347 
   30500    26738    298.46156   -447.25805     -2934617    23786.765   -2910830.2     260815.8    1.1504639    50.710898    50.710898     101.4218 
   30600    26738    300.28868    1356.1276   -2934559.4    23932.383   -2910627.1    260537.84    1.1516913    50.692877    50.692877    101.38575 
   30700    26738    300.43445   -1316.9116   -2934558.6        23944   -2910614.6    260514.42    1.1517948    50.691358    50.691358    101.38272 
   30800    26738     300.1303    2084.6999   -2934741.3     23919.76   -2910821.6    260641.36    1.1512338     50.69959     50.69959    101.39918 
   30900    26738    299.49694    956.74938   -2934903.2    23869.282   -2911033.9    260801.68    1.1505261    50.709983    50.709983    101.41997 
   31000    26738    299.24121   -1050.1279   -2934827.3    23848.901   -2910978.4    260815.29    1.1504661    50.710865    50.710865    101.42173 
   31100    26738    302.52794    413.87214   -2934977.4    24110.847   -2910866.6    260858.89    1.1502738     50.71369     50.71369    101.42738 
   31200    26738    300.34748   -1182.5878   -2934768.1    23937.069     -2910831    260774.13    1.1506477    50.708197    50.708197    101.41639 
   31300    26738    301.21554    81.011336   -2934626.2    24006.251   -2910619.9    260620.84    1.1513245    50.698259    50.698259    101.39652 
   31400    26738    300.31873    1105.3327   -2934344.4    23934.778   -2910409.6     260668.8    1.1511127    50.701369    50.701369    101.40274 
   31500    26738    301.82304   -1458.9687   -2934624.6    24054.668     -2910570    260544.52    1.1516617     50.69331     50.69331    101.38662 
   31600    26738    301.01153   -374.69296   -2934753.8    23989.992   -2910763.8     260265.6    1.1528959    50.675214    50.675214    101.35043 
   31700    26738    300.67055   -552.09097   -2934792.5    23962.817   -2910829.7    260249.05    1.1529693     50.67414     50.67414    101.34828 
   31800    26738    299.35034    313.93843   -2934787.5    23857.599   -2910929.9    260480.09    1.1519466    50.689131    50.689131    101.37826 
   31900    26738    297.36961   -423.96667     -2934744    23699.739   -2911044.3    260927.89    1.1499696    50.718162    50.718162    101.43632 
   32000    26738    298.94536    1125.6793   -2934718.6    23825.323   -2910893.2    261024.16    1.1495455    50.724398    50.724398     101.4488 
   32100    26738    303.58891    17.305083   -2934806.6    24195.405   -2910611.2    261193.22    1.1488014    50.735347    50.735347    101.47069 
   32200    26738    301.05204   -79.448449   -2934657.8    23993.221   -2910664.6    260878.01    1.1501895    50.714929    50.714929    101.42986 
   32300    26738    299.25368    1075.6027   -2934663.2    23849.896   -2910813.3    260852.18    1.1503034    50.713256    50.713256    101.42651 
   32400    26738    298.35987   -1792.7039   -2934722.5    23778.661   -2910943.9    260790.64    1.1505749    50.709267    50.709267    101.41853 
   32500    26738    296.11418    -1748.366   -2934744.4    23599.684   -2911144.7    260684.66    1.1510426    50.702397    50.702397    101.40479 
   32600    26738    298.14324    556.70661   -2934837.2    23761.396   -2911075.8    260443.45    1.1521087    50.686754    50.686754    101.37351 
   32700    26738    298.69798    -827.7178   -2934599.8    23805.607   -2910794.2    260247.31     1.152977    50.674027    50.674027    101.34805 
   32800    26738    300.96169    1141.1484   -2934674.4     23986.02   -2910688.4    260247.73    1.1529751    50.674054    50.674054    101.34811 
   32900    26738     299.5362    299.52986   -2934616.5    23872.411   -2910744.1    260355.54    1.1524977    50.681051    50.681051     101.3621 
   33000    26738    297.04846    1424.7075   -2934657.1    23674.144   -2910982.9    260098.98    1.1536345    50.664397    50.664397    101.32879 
   33100    26738      297.867    101.93584   -2934717.8     23739.38   -2910978.4    259907.72    1.1544834    50.651976    50.651976    101.30395 
   33200    26738    302.74243   -443.56442   -2934733.9    24127.942     -2910606    259819.39    1.1548759    50.646237    50.646237    101.29247 
   33300    26738    300.68318   -460.35387   -2934546.5    23963.824   -2910582.6    260090.74     1.153671    50.663862    50.663862    101.32772 
   33400    26738    298.21321    1355.6846   -2934503.5    23766.972   -2910736.5    259915.44    1.1544491    50.652478    50.652478    101.30496 
   33500    26738    298.78367   -337.00703   -2934702.4    23812.437     -2910890    259992.74    1.1541059    50.657499    50.657499      101.315 
   33600    26738    299.71583    1093.6621   -2934705.5    23886.728   -2910818.8    260160.45    1.1533619    50.668388    50.668388    101.33678 
   33700    26738    300.52334     1026.647   -2934418.9    23951.085   -2910467.9    260106.91    1.1535993    50.664912    50.664912    101.32982 
   33800    26738    300.48705   -1798.1179   -2934446.3    23948.192   -2910498.1    260274.01    1.1528587     50.67576     50.67576    101.35152 
   33900    26738    300.41757   -1176.2943   -2934574.9    23942.655   -2910632.3    260371.93    1.1524251    50.682114    50.682114    101.36423 
   34000    26738    299.15761    385.63298   -2934650.1    23842.239   -2910807.8    260318.14    1.1526633    50.678624    50.678624    101.35725 
   34100    26738    299.44586    2191.7378   -2934892.3    23865.212   -2911027.1    260231.93    1.1530451    50.673029    50.673029    101.34606 
   34200    26738    296.80104   -456.18089   -2934770.5    23654.425   -2911116.1    259977.99    1.1541713    50.656541    50.656541    101.31308 
   34300    26738    300.75145    3499.1846   -2934818.1    23969.265   -2910848.9    259647.75    1.1556393    50.635082    50.635082    101.27016 
   34400    26738    303.24315   -1124.2861   -2934804.9    24167.848     -2910637    259603.86    1.1558347    50.632229    50.632229    101.26446 
   34500    26738    300.43731    1557.2631   -2934691.6    23944.228   -2910747.3    259517.56    1.1562191    50.626618    50.626618    101.25324 
   34600    26738     297.2344    958.53467   -2934556.1    23688.963   -2910867.2    259748.15    1.1551926    50.641608    50.641608    101.28322 
   34700    26738    299.37715    360.25157   -2934738.2    23859.736   -2910878.5    259749.69    1.1551858    50.641708    50.641708    101.28342 
   34800    26738    297.12333   -1566.7723   -2934593.2    23680.111   -2910913.1    259609.02    1.1558117    50.632565    50.632565    101.26513 
   34900    26738    300.12745   -2408.8045   -2934628.9    23919.533   -2910709.3    259305.84    1.1571631    50.612847    50.612847    101.22569 
   35000    26738    301.56808    877.17012   -2934521.5    24034.348   -2910487.2    259050.89     1.158302    50.596254    50.596254    101.19251 
   35100    26738     301.6652   -1072.3283   -2934610.2    24042.088   -2910568.1    259076.25    1.1581886    50.597905    50.597905    101.19581 
   35200    26738    301.21241    852.21715     -2934777    24006.002     -2910771    258944.64    1.1587772    50.589335    50.589335    101.17867 
   35300    26738    300.51676   -1322.6925   -2934759.2     23950.56   -2910808.6    259131.96    1.1579396    50.601532    50.601532    101.20306 
   35400    26738    300.76844   -2044.1607   -2934757.8    23970.618   -2910787.2    258905.64    1.1589518    50.586796    50.586796    101.17359 
   35500    26738    299.93484   -1417.4544   -2934737.9    23904.183   -2910833.7     258764.3    1.1595848    50.577589    50.577589    101.15518 
   35600    26738     297.2465    185.43015   -2934815.3    23689.928   -2911125.4     258469.5    1.1609074    50.558374    50.558374    101.11675 
   35700    26738    296.95626    764.83229   -2934815.1    23666.796   -2911148.3    258407.41    1.1611863    50.554326    50.554326    101.10865 
   35800    26738    299.52039    1476.5666   -2934778.2    23871.151     -2910907     258353.3    1.1614295    50.550797    50.550797    101.10159 
   35900    26738    301.71935    617.97206   -2934809.1    24046.404   -2910762.7    258561.45    1.1604945    50.564369    50.564369    101.12874 
   36000    26738    302.26048    871.60149   -2934905.6    24089.531   -2910816.1    258686.13    1.1599352    50.572496    50.572496    101.14499 
   36100    26738    299.43946   -1997.6881   -2934850.2    23864.702   -2910985.5    259008.97    1.1584894    50.593525    50.593525    101.18705 
   36200    26738    299.00562    2256.2053   -2934826.4    23830.125   -2910996.3    258982.71    1.1586069    50.591815    50.591815    101.18363 
   36300    26738    300.25648    2034.4804   -2934815.3    23929.816   -2910885.5     259021.4    1.1584338    50.594334    50.594334    101.18867 
   36400    26738    299.94967   -1058.7041   -2934725.1    23905.364   -2910819.7    259175.85    1.1577435    50.604388    50.604388    101.20878 
   36500    26738    299.84256    148.68641   -2934696.8    23896.828     -2910800    259128.14    1.1579566    50.601283    50.601283    101.20257 
   36600    26738    299.88674    2018.3336   -2934715.5    23900.349   -2910815.1    259141.12    1.1578986    50.602128    50.602128    101.20426 
   36700    26738    300.63649   -1329.6697   -2934838.2    23960.102   -2910878.1    259108.05    1.1580464    50.599975    50.599975    101.19995 
   36800    26738    301.22072    2114.7998   -2935093.5    24006.664   -2911086.9    259145.55    1.1578789    50.602416    50.602416    101.20483 
   36900    26738    298.37574   -215.78306   -2935031.2    23779.925   -2911251.2    259096.78    1.1580968    50.599241    50.599241    101.19848 
   37000    26738    298.86161   -410.94948   -2934943.7    23818.648     -2911125    258819.44    1.1593378    50.581181    50.581181    101.16236 
   37100    26738    300.99864    -345.0343   -2934887.7    23988.965   -2910898.8    258763.52    1.1595883    50.577538    50.577538    101.15508 
   37200    26738    300.61361   -2420.0183   -2934850.9    23958.279   -2910892.7    258960.63    1.1587057    50.590377    50.590377    101.18075 
   37300    26738     298.6294     763.8517   -2934714.1    23800.141     -2910914    258895.37    1.1589977    50.586127    50.586127    101.17225 
   37400    26738    302.07579   -1596.9654   -2934909.8    24074.812     -2910835    258691.48    1.1599112    50.572844    50.572844    101.14569 
   37500    26738    301.97195   -1446.5835   -2934905.4    24066.536   -2910838.9    258366.86    1.1613686    50.551681    50.551681    101.10336 
   37600    26738    300.10437   -801.86769   -2934992.8    23917.694   -2911075.1    258265.71    1.1618234    50.545083    50.545083    101.09017 
   37700    26738    297.22818    1311.0122   -2934889.8    23688.467   -2911201.3    258549.18    1.1605496    50.563569    50.563569    101.12714 
   37800    26738     298.9113   -516.01733   -2934877.5    23822.608   -2911054.9    258615.07    1.1602539    50.567864    50.567864    101.13573 
   37900    26738    299.03617   -1500.5008   -2934645.3     23832.56   -2910812.8    258407.04     1.161188    50.554301    50.554301     101.1086 
   38000    26738    298.68214   -2741.0329   -2934608.3    23804.345     -2910804    258267.55    1.1618152    50.545203    50.545203    101.09041 
   38100    26738    300.87633    1729.4447   -2934784.9    23979.217   -2910805.7    258208.27    1.1620819    50.541336    50.541336    101.08267 
   38200    26738    298.54413   -2181.1199   -2934738.8    23793.346   -2910945.5    258300.81    1.1616656    50.547373    50.547373    101.09475 
   38300    26738    297.11837    2280.4042   -2934816.7    23679.715     -2911137    258228.37    1.1619914    50.542647    50.542647    101.08529 
   38400    26738    300.40835   -2176.9987   -2934931.7     23941.92   -2910989.8    258297.48    1.1616805    50.547156    50.547156    101.09431 
   38500    26738    302.58004    1477.2404   -2934855.9    24114.999   -2910740.9    258511.19    1.1607201    50.561093    50.561093    101.12219 
   38600    26738    301.21527   -835.53798   -2934794.6     24006.23   -2910788.4    258718.77    1.1597889    50.574622    50.574622    101.14924 
   38700    26738    299.41943  -0.70330334   -2934707.2    23863.105   -2910844.1    258934.21    1.1588239    50.588656    50.588656    101.17731 
   38800    26738    302.40714    1114.2246   -2934867.5    24101.219   -2910766.3    258907.91    1.1589416    50.586944    50.586944    101.17389 
   38900    26738    302.14239   -485.85862   -2934663.6    24080.119   -2910583.5    258762.55    1.1595927    50.577475    50.577475    101.15495 
   39000    26738    301.01046    3542.1449   -2934652.5    23989.907   -2910662.6    258825.74    1.1593095    50.581592    50.581592    101.16318 
   39100    26738    300.04998    933.44463     -2934839    23913.359   -2910925.6    258999.27    1.1585328    50.592893    50.592893    101.18579 
   39200    26738    301.01776    885.52534   -2934973.3    23990.489   -2910982.8     259015.5    1.1584602     50.59395     50.59395     101.1879 
   39300    26738       300.25    1035.1691   -2934856.1      23929.3   -2910926.8    258721.19     1.159778     50.57478     50.57478    101.14956 
   39400    26738    299.96913   -615.69111   -2934689.1    23906.915   -2910782.1    258215.81     1.162048    50.541828    50.541828    101.08366 
   39500    26738     301.6538   -2784.5145   -2934531.3     24041.18   -2910490.2    257860.24    1.1636503    50.518618    50.518618    101.03724 
   39600    26738    303.84809     3625.919   -2934719.3     24216.06   -2910503.3    257683.83    1.1644469    50.507095    50.507095    101.01419 
   39700    26738    301.30961    1336.3705   -2934819.2    24013.749   -2910805.4    258186.58    1.1621795    50.539921    50.539921    101.07984 
   39800    26738    300.55669   -1372.9615     -2934949    23953.743   -2910995.2    258771.22    1.1595538     50.57804     50.57804    101.15608 
   39900    26738    299.33784   -1910.1696   -2934998.3    23856.603   -2911141.7    259109.31    1.1580408    50.600057    50.600057    101.20011 
   40000    26738    297.96514   -1498.0695   -2934947.2    23747.201     -2911200    258846.79    1.1592153    50.582963    50.582963    101.16593 
   40100    26738    303.14888     1738.544   -2935146.6    24160.334   -2910986.2    258482.23    1.1608502    50.559205    50.559205    101.11841 
   40200    26738    300.08295   -366.51091   -2934829.2    23915.986   -2910913.2    258285.06    1.1617364    50.546346    50.546346    101.09269 
   40300    26738    301.49962    192.92993   -2935021.4    24028.892   -2910992.5    258230.77    1.1619806    50.542804    50.542804    101.08561 
   40400    26738    298.60002   -41.185669     -2935056      23797.8   -2911258.2    258306.21    1.1616413    50.547725    50.547725    101.09545 
   40500    26738    298.89297   -2369.9054   -2935048.8    23821.148   -2911227.6    258465.62    1.1609248    50.558122    50.558122    101.11624 
   40600    26738    299.93142   -176.86415   -2934901.4     23903.91   -2910997.5    258371.91    1.1613459    50.552011    50.552011    101.10402 
   40700    26738     299.3682   -1683.7223   -2934758.8    23859.022   -2910899.8    258508.84    1.1607307     50.56094     50.56094    101.12188 
   40800    26738    300.02716     -2371.25   -2934793.8     23911.54   -2910882.3    258592.01    1.1603574    50.566361    50.566361    101.13272 
   40900    26738    297.11667   -293.55426   -2934628.1     23679.58   -2910948.5    258396.11    1.1612371    50.553589    50.553589    101.10718 
   41000    26738    298.46264    69.420822   -2934911.2    23786.851   -2911124.3    258191.23    1.1621586    50.540224    50.540224    101.08045 
   41100    26738    297.31915   -1004.3971     -2934996    23695.718   -2911300.3    257804.42    1.1639023    50.514973    50.514973    101.02995 
   41200    26738    296.89072    832.71611   -2934862.6    23661.572   -2911201.1    257680.86    1.1644604    50.506901    50.506901     101.0138 
   41300    26738    302.73086    1255.0057   -2935077.1    24127.019   -2910950.1    257638.25     1.164653    50.504117    50.504117    101.00823 
   41400    26738    299.56145   -1281.0977   -2934897.6    23874.424   -2911023.2       257681    1.1644598     50.50691     50.50691    101.01382 
   41500    26738     300.9941    817.41461   -2935080.9    23988.603   -2911092.3    257714.65    1.1643077    50.509109    50.509109    101.01822 
   41600    26738    298.73202    905.00219   -2935009.8     23808.32   -2911201.5    257765.55    1.1640778    50.512434    50.512434    101.02487 
   41700    26738    299.92254   -101.39623   -2935099.5    23903.202   -2911196.2    257730.18    1.1642375    50.510123    50.510123    101.02025 
   41800    26738    299.76109    234.35462   -2934831.1    23890.335   -2910940.8    257484.11    1.1653502    50.494043    50.494043    100.98809 
   41900    26738    302.92751    2700.8562   -2934953.1    24142.692   -2910810.4    257148.92    1.1668692    50.472123    50.472123    100.94425 
   42000    26738    300.94347     1093.955   -2934921.6    23984.568   -2910937.1    256792.96    1.1684867    50.448823    50.448823    100.89765 
   42100    26738    299.74626   -48.755028   -2935061.5    23889.153   -2911172.3    256858.37    1.1681891    50.453106    50.453106    100.90621 
   42200    26738    299.61389    2200.3035   -2935144.7    23878.603   -2911266.1    256559.62    1.1695494    50.433538    50.433538    100.86708 
   42300    26738    298.41844   -1152.0859   -2935009.1    23783.328   -2911225.8    256497.91    1.1698308    50.429494    50.429494    100.85899 
   42400    26738     300.3179   -339.92558   -2935061.1    23934.712   -2911126.4    256653.97    1.1691195    50.439719    50.439719    100.87944 
   42500    26738    300.43465   -831.45434   -2934991.8    23944.016   -2911047.8    256845.06    1.1682497    50.452235    50.452235    100.90447 
   42600    26738    301.74956   -2855.5649   -2934820.1    24048.812   -2910771.3    257107.53     1.167057    50.469414    50.469414    100.93883 
   42700    26738    302.44779   -1352.7148   -2934821.4     24104.46     -2910717    257205.57    1.1666122    50.475829    50.475829    100.95166 
   42800    26738    300.70963   -627.13206   -2934926.3    23965.932   -2910960.4    257326.48     1.166064    50.483737    50.483737    100.96747 
   42900    26738    299.90581    -610.0816   -2934932.2    23901.868   -2911030.4     257271.7    1.1663123    50.480154    50.480154    100.96031 
   43000    26738    302.40698     249.7807   -2935179.4    24101.207   -2911078.2    257335.35    1.1660238    50.484317    50.484317    100.96863 
   43100    26738    299.32951    1416.7657   -2935073.6    23855.939   -2911217.7    257110.87    1.1670419    50.469633    50.469633    100.93927 
   43200    26738     299.1871   -1855.1238   -2935084.4    23844.589   -2911239.8    257056.76    1.1672875    50.466092    50.466092    100.93218 
   43300    26738     297.6861   -1323.0191   -2934905.7    23724.962   -2911180.7    257087.07    1.1671499    50.468076    50.468076    100.93615 
   43400    26738    300.79588   -1193.8913   -2934749.9    23972.805   -2910777.1    256795.69    1.1684742    50.449002    50.449002      100.898 
   43500    26738    301.64898   -162.43896   -2934797.5    24040.796   -2910756.7    256701.95     1.168901    50.442862    50.442862    100.88572 
   43600    26738    300.69294    1319.6809   -2934949.1    23964.602   -2910984.5    256252.58    1.1709508    50.413411    50.413411    100.82682 
   43700    26738    298.78022     441.3144     -2934979    23812.162   -2911166.8    256109.23    1.1716062    50.404009    50.404009    100.80802 
   43800    26738    298.92504     799.3623   -2935019.8    23823.703   -2911196.1    256114.58    1.1715817    50.404359    50.404359    100.80872 
   43900    26738    299.47741   -1351.9652   -2935069.5    23867.726   -2911201.7    256235.17    1.1710303    50.412269    50.412269    100.82454 
   44000    26738    299.04075    1110.3433   -2934848.4    23832.925   -2911015.5    256195.91    1.1712098    50.409694    50.409694    100.81939 
   44100    26738    299.86171    1779.5898   -2934715.2    23898.354   -2910816.8    256183.25    1.1712676    50.408864    50.408864    100.81773 
   44200    26738    301.51143   -697.62835   -2935008.9    24029.833     -2910979    256159.21    1.1713776    50.407288    50.407288    100.81458 
   44300    26738    299.76795   -1184.3789   -2935141.2    23890.882   -2911250.3    256141.27    1.1714596     50.40611     50.40611    100.81222 
   44400    26738    299.36056   -776.58926   -2935214.2    23858.414   -2911355.7    256308.32    1.1706961    50.417066    50.417066    100.83413 
   44500    26738    297.54872   -848.08685   -2935116.1    23714.014     -2911402    256740.17    1.1687269    50.445366    50.445366    100.89073 
   44600    26738    299.83853   -2724.0245   -2935176.6    23896.507   -2911280.1    256941.01    1.1678134    50.458516    50.458516    100.91703 
   44700    26738    301.68282    41.559943   -2935055.2    24043.493   -2911011.7    256733.54    1.1687571    50.444932    50.444932    100.88986 
   44800    26738    302.29567    2104.0956   -2935029.2    24092.336   -2910936.9    256342.64    1.1705394    50.419316    50.419316    100.83863 
   44900    26738     301.1118   -910.39626     -2935078    23997.983     -2911080    255890.13    1.1726093    50.389631    50.389631    100.77926 
   45000    26738    298.93903    1625.7216   -2935015.9    23824.818   -2911191.1    255732.55    1.1733319    50.379285    50.379285    100.75857 
   45100    26738    302.44448    1049.4799   -2935288.2    24104.196     -2911184    255537.62    1.1742269    50.366482    50.366482    100.73296 
   45200    26738    298.75737     -2443.85   -2935045.6    23810.341   -2911235.3     255498.3    1.1744076    50.363899    50.363899     100.7278 
   45300    26738    301.75773   -323.18507   -2935233.5    24049.463     -2911184    255433.66    1.1747048    50.359651    50.359651     100.7193 
   45400    26738    300.88032   -434.91184   -2934991.5    23979.535     -2911012    255774.03    1.1731416    50.382009    50.382009    100.76402 
   45500    26738    302.16944   -1883.5016   -2935038.2    24082.275     -2910956    256117.22    1.1715696    50.404533    50.404533    100.80907 
   45600    26738    299.02753    470.99734   -2934983.1    23831.872   -2911151.3    256230.89    1.1710499    50.411988    50.411988    100.82398 
   45700    26738    298.74999    257.54009     -2935099    23809.752   -2911289.3    256233.09    1.1710398    50.412133    50.412133    100.82427 
   45800    26738    299.61268    1650.5142   -2935102.2    23878.507   -2911223.7     256037.3    1.1719353     50.39929     50.39929    100.79858 
   45900    26738    302.47146   -1647.3085   -2935005.5    24106.346   -2910899.1    255892.14    1.1726001    50.389763    50.389763    100.77953 
   46000    26738     301.5994   -1316.4178   -2935051.2    24036.844   -2911014.4    255967.69     1.172254    50.394722    50.394722    100.78944 
   46100    26738    300.62008   -527.78834   -2935185.3    23958.794   -2911226.5    256262.87    1.1709037    50.414086    50.414086    100.82817 
   46200    26738    297.13768   -1671.2252   -2934991.1    23681.255   -2911309.9    256384.11      1.17035    50.422035    50.422035    100.84407 
   46300    26738     300.2345   -4228.4638   -2935122.2    23928.064   -2911194.1    256171.19    1.1713228    50.408073    50.408073    100.81615 
   46400    26738    299.72668   -1018.1708   -2934965.8    23887.593   -2911078.3    255794.23    1.1730489    50.383336    50.383336    100.76667 
   46500    26738    302.07635   -688.24625   -2934919.9    24074.856   -2910845.1    255667.62    1.1736299    50.375021    50.375021    100.75004 
   46600    26738    304.05249    668.46785   -2934938.5     24232.35   -2910706.2     255815.5    1.1729514    50.384732    50.384732    100.76946 
   46700    26738    300.41935    318.43293   -2934969.3    23942.797   -2911026.5    256000.02     1.172106    50.396843    50.396843    100.79369 
   46800    26738    300.63649    1241.1661   -2935098.4    23960.103   -2911138.3    255875.47    1.1726765    50.388669    50.388669    100.77734 
   46900    26738     299.6947    732.53551   -2935204.3    23885.044   -2911319.3    255759.97    1.1732061    50.381086    50.381086    100.76217 
   47000    26738    298.89867    2226.8417   -2935219.4    23821.602   -2911397.8       255526    1.1742803    50.365719    50.365719    100.73144 
   47100    26738    299.83649    674.66557   -2935160.4    23896.344   -2911264.1    255659.61    1.1736666    50.374496    50.374496    100.74899 
   47200    26738    302.34175   -659.96365   -2935077.7    24096.008   -2910981.7    255849.88    1.1727938    50.386989    50.386989    100.77398 
   47300    26738    303.66045   -511.86283     -2935203    24201.106   -2911001.9    255884.45    1.1726354    50.389258    50.389258    100.77852 
   47400    26738    301.94278    -477.4112   -2935263.8    24064.211   -2911199.6     255388.8    1.1749111    50.356703    50.356703    100.71341 
   47500    26738    300.28789    442.79398   -2935243.8    23932.319   -2911311.5    254684.55      1.17816    50.310373    50.310373    100.62075 
   47600    26738    297.94071   -1669.7265   -2935101.5    23745.254   -2911356.3     254502.9    1.1790009    50.298409    50.298409    100.59682 
   47700    26738    300.48924    -1770.078   -2935233.7    23948.367   -2911285.4    254522.11    1.1789119    50.299675    50.299675    100.59935 
   47800    26738    301.57521   -943.05891   -2935052.9    24034.916     -2911018    254855.78    1.1773684    50.321645    50.321645    100.64329 
   47900    26738    302.52317   -2215.1362   -2934950.7    24110.467   -2910840.2     254953.9    1.1769153    50.328102    50.328102     100.6562 
   48000    26738    302.36886    751.09262   -2935143.9    24098.169   -2911045.8    255135.09    1.1760795    50.340022    50.340022    100.68004 
   48100    26738    301.06037   -859.60606   -2935213.3    23993.884   -2911219.4    255301.13    1.1753146     50.35094     50.35094    100.70188 
   48200    26738    297.49158    486.45221   -2935022.8     23709.46   -2911313.4    255081.39    1.1763271     50.33649     50.33649    100.67298 
   48300    26738    299.41275     695.0143   -2935137.3    23862.573   -2911274.7    255204.14    1.1757613    50.344562    50.344562    100.68912 
   48400    26738    302.72121    1416.6345   -2935208.2     24126.25     -2911082    255411.17    1.1748083    50.358173    50.358173    100.71635 
   48500    26738    301.91181    2376.4762   -2935085.8    24061.743   -2911024.1    255669.65    1.1736205    50.375155    50.375155    100.75031 
   48600    26738     300.5222    2229.1479   -2935256.4    23950.994   -2911305.4    255665.08    1.1736415    50.374855    50.374855    100.74971 
   48700    26738    301.45258    905.09904   -2935390.6    24025.143   -2911365.4    255553.21    1.1741553    50.367506    50.367506    100.73501 
   48800    26738    300.14247    301.81547   -2935285.8     23920.73   -2911365.1    255587.96    1.1739957    50.369789    50.369789    100.73958 
   48900    26738    299.72559   -1134.5949   -2935218.7    23887.506   -2911331.2    255583.82    1.1740147    50.369517    50.369517    100.73903 
   49000    26738    301.53714   -1972.4716   -2935231.7    24031.882   -2911199.8    255349.01    1.1750942    50.354087    50.354087    100.70817 
   49100    26738    302.22505   -1532.0423   -2934993.1    24086.707   -2910906.4    255026.64    1.1765796    50.332888    50.332888    100.66578 
   49200    26738     302.1162    37.480211   -2935047.9    24078.033   -2910969.9    254869.05    1.1773072    50.322518    50.322518    100.64504 
   49300    26738    300.26246    1402.1244   -2935183.9    23930.293   -2911253.6    254791.13    1.1776672     50.31739     50.31739    100.63478 
   49400    26738    301.06585    87.418736   -2935316.5    23994.322   -2911322.1    254799.63    1.1776279    50.317949    50.317949     100.6359 
   49500    26738    296.81509    2115.9585   -2935032.7    23655.544   -2911377.2    254855.83    1.1773682    50.321648    50.321648     100.6433 
   49600    26738    297.44378   -152.80619   -2934900.7     23705.65     -2911195    254807.58    1.1775911    50.318473    50.318473    100.63695 
   49700    26738    302.47745   -201.60031   -2935115.3    24106.823   -2911008.5    254995.75    1.1767222    50.330856    50.330856    100.66171 
   49800    26738     300.6247   -252.70836   -2935049.1    23959.163   -2911089.9    255369.93     1.174998    50.355462    50.355462    100.71092 
   49900    26738    300.55545    1977.0487     -2935152    23953.643   -2911198.3    255353.23    1.1750748    50.354364    50.354364    100.70873 
   50000    26738     301.8671   -699.22418   -2935335.5    24058.179   -2911277.4    255616.89    1.1738628     50.37169     50.37169    100.74338 
   50100    26738    300.21664   -230.39279   -2935196.5    23926.641   -2911269.9    255895.37    1.1725853    50.389975    50.389975    100.77995 
   50200    26738    300.29272    341.23074     -2935164    23932.705   -2911231.3    256029.78    1.1719697    50.398796    50.398796    100.79759 
   50300    26738    299.63649   -322.65692   -2935074.5    23880.404   -2911194.1    256038.63    1.1719292    50.399377    50.399377    100.79875 
   50400    26738    300.12527    1200.4935   -2935110.4    23919.359   -2911191.1     256213.8     1.171128    50.410868    50.410868    100.82174 
   50500    26738    299.09135    1034.2332   -2935100.9    23836.958   -2911263.9    256076.36    1.1717565    50.401852    50.401852     100.8037 
   50600    26738    301.26087    85.412409   -2935303.6    24009.864   -2911293.7    255774.93    1.1731375    50.382068    50.382068    100.76414 
   50700    26738    298.44621   -1177.0087   -2935261.5    23785.541     -2911476    255544.52    1.1741952    50.366936    50.366936    100.73387 
   50800    26738    297.77627    475.06583   -2935387.4    23732.149   -2911655.2       255378    1.1749608    50.355993    50.355993    100.71199 
   50900    26738    300.16189    1820.2412   -2935422.2    23922.278   -2911499.9    255371.97    1.1749886    50.355596    50.355596    100.71119 
[...]
  187600    26738    300.50913   -468.00536   -2935851.3    23949.952   -2911901.4    250834.24    1.1962448    50.055554    50.055554    100.11111 
  187700    26738    299.00131    2781.3304   -2935886.5    23829.782   -2912056.7    250753.98    1.1966277    50.050215    50.050215    100.10043 
  187800    26738    297.28247    716.38914   -2936077.5    23692.794   -2912384.7    250819.21    1.1963165    50.054554    50.054554    100.10911 
  187900    26738    296.59939   -400.52829   -2936032.8    23638.354   -2912394.5     250950.6    1.1956901    50.063293    50.063293    100.12659 
  188000    26738    297.19926   -9.7715503   -2935821.7    23686.162   -2912135.5    251002.59    1.1954425     50.06675     50.06675     100.1335 
  188100    26738     299.4658   -1518.7868   -2935814.7    23866.801   -2911947.9    251022.74    1.1953465     50.06809     50.06809    100.13618 
  188200    26738    301.86817   -515.76146   -2935840.9    24058.265   -2911782.6    250975.07    1.1955735     50.06492     50.06492    100.12984 
  188300    26738    299.54004    1639.8681   -2935663.3    23872.718   -2911790.6     250786.6     1.196472    50.052385    50.052385    100.10477 
  188400    26738    298.85124   -261.57462   -2935796.3    23817.822   -2911978.4     250578.8    1.1974643    50.038557    50.038557    100.07711 
  188500    26738    298.05566   -1121.7969   -2935901.5    23754.416   -2912147.1    250555.22     1.197577    50.036987    50.036987    100.07397 
  188600    26738    298.73691    459.34106   -2935878.2     23808.71   -2912069.5    250623.79    1.1972493    50.041552    50.041552     100.0831 
  188700    26738    301.94223    90.372127   -2935747.4    24064.167   -2911683.2    250673.36    1.1970125    50.044851    50.044851     100.0897 
  188800    26738    301.55347   -1540.8427   -2935663.9    24033.184   -2911630.7    250855.73    1.1961423    50.056984    50.056984    100.11397 
  188900    26738     299.9206    796.63082   -2935711.8    23903.048   -2911808.7    251010.99    1.1954025    50.067309    50.067309    100.13462 
  189000    26738     298.7222    1820.7529   -2935764.4    23807.537   -2911956.9    250985.48     1.195524    50.065612    50.065612    100.13122 
  189100    26738    300.81698   -2905.5177   -2935949.5    23974.487   -2911975.1    251041.25    1.1952584     50.06932     50.06932    100.13864 
  189200    26738     298.7006   -566.20577   -2935749.4    23805.816   -2911943.6    251112.45    1.1949195    50.074053    50.074053    100.14811 
  189300    26738    302.91446    2072.1202   -2935858.5    24141.652   -2911716.9    251118.77    1.1948894    50.074474    50.074474    100.14895 
  189400    26738    301.12841     670.0849   -2935717.6    23999.308   -2911718.3    251240.39     1.194311    50.082556    50.082556    100.16511 
  189500    26738     299.0493   -1623.8925   -2935734.1    23833.607   -2911900.5    251297.96    1.1940374    50.086381    50.086381    100.17276 
  189600    26738    301.49241    465.30067   -2936029.4    24028.318   -2912001.1    251229.16    1.1943643     50.08181     50.08181    100.16362 
  189700    26738    299.19393    1139.4716   -2935902.8    23845.133   -2912057.7    251060.38    1.1951673    50.070593    50.070593    100.14119 
  189800    26738    300.50011   -920.79468   -2935935.3    23949.233   -2911986.1    250906.24    1.1959015    50.060343    50.060343    100.12069 
  189900    26738    301.78704   -2271.5847   -2935829.8    24051.799     -2911778    250979.23    1.1955537    50.065197    50.065197    100.13039 
  190000    26738    300.49525    867.13936   -2935669.5    23948.846   -2911720.7    250900.18    1.1959304     50.05994     50.05994    100.11988 
  190100    26738    299.95075    511.86486   -2935615.5    23905.451   -2911710.1    251075.96    1.1950931    50.071628    50.071628    100.14326 
  190200    26738    299.67812   -1483.7665   -2935666.4    23883.722   -2911782.7    251088.92    1.1950314     50.07249     50.07249    100.14498 
  190300    26738    298.73422   -280.55542   -2935862.2    23808.495   -2912053.7    250936.23    1.1957586    50.062337    50.062337    100.12467 
  190400    26738    297.29353   -1755.4452   -2935832.8    23693.676   -2912139.2    250833.98     1.196246    50.055537    50.055537    100.11107 
  190500    26738    300.34817    51.665228   -2935895.2    23937.124   -2911958.1    250946.21     1.195711    50.063002    50.063002      100.126 
  190600    26738    299.65413   -231.31038   -2935710.8     23881.81     -2911829    251125.48    1.1948574     50.07492     50.07492    100.14984 
  190700    26738    299.80303   -757.34719   -2935687.9    23893.677   -2911794.2    251420.58     1.193455    50.094526    50.094526    100.18905 
  190800    26738    299.53699   -32.831992   -2935680.6    23872.474   -2911808.2    251423.91    1.1934392    50.094748    50.094748     100.1895 
  190900    26738     301.4272    582.83559   -2935787.7     24023.12   -2911764.6    251412.03    1.1934956    50.093959    50.093959    100.18792 
  191000    26738    300.89712     111.9463   -2935667.7    23980.874   -2911686.9    251452.19     1.193305    50.096626    50.096626    100.19325 
  191100    26738     303.4966   -3291.4223   -2935680.2    24188.047   -2911492.2    251477.02    1.1931872    50.098275    50.098275    100.19655 
  191200    26738     300.3518   -2041.9952   -2935583.4    23937.414     -2911646     251367.8    1.1937056    50.091021    50.091021    100.18204 
  191300    26738    298.60024    735.41826   -2935669.2    23797.818   -2911871.4    251426.29    1.1934279    50.094906    50.094906    100.18981 
  191400    26738    298.41528    2280.2163   -2935682.2    23783.076   -2911899.2    251300.36    1.1940259    50.086541    50.086541    100.17308 
  191500    26738    301.87839    279.81769   -2935799.1    24059.079     -2911740    251209.11    1.1944597    50.080478    50.080478    100.16096 
  191600    26738    299.93404   -1446.3022   -2935499.3    23904.119   -2911595.1    251049.39    1.1952196    50.069861    50.069861    100.13972 
  191700    26738    303.22876   -2068.6382   -2935625.4    24166.701   -2911458.7    251012.01    1.1953976    50.067376    50.067376    100.13475 
  191800    26738    302.12231    1231.1165   -2935655.7    24078.519   -2911577.2    250878.56    1.1960334    50.058502    50.058502      100.117 
  191900    26738    300.67132   -321.45426   -2935857.1    23962.879   -2911894.2    250632.18    1.1972092     50.04211     50.04211    100.08422 
  192000    26738    299.65269   -1521.2526   -2935868.6    23881.696   -2911986.9    250645.56    1.1971453       50.043       50.043      100.086 
  192100    26738    297.72542   -947.16087   -2935707.7    23728.096   -2911979.6     250702.9    1.1968715    50.046816    50.046816    100.09363 
  192200    26738    300.41476     339.1815   -2935658.6    23942.431   -2911716.1    250669.98    1.1970287    50.044625    50.044625    100.08925 
  192300    26738    300.83942    361.29992   -2935589.8    23976.276   -2911613.6    250552.01    1.1975923    50.036774    50.036774    100.07355 
  192400    26738     299.2007    -714.5416   -2935544.9    23845.673   -2911699.2    250678.02    1.1969903     50.04516     50.04516    100.09032 
  192500    26738    299.95833   -739.10511   -2935674.5    23906.054   -2911768.5     250741.7    1.1966863    50.049398    50.049398     100.0988 
  192600    26738    298.72421     746.1285   -2935672.1    23807.697   -2911864.4    250640.01    1.1971718    50.042631    50.042631    100.08526 
  192700    26738     300.4883   -674.46047   -2935847.1    23948.292   -2911898.8    250215.05    1.1992051    50.014332    50.014332    100.02866 
  192800    26738    299.99218    1559.3046   -2935886.8    23908.752     -2911978    249918.11    1.2006299     49.99454     49.99454     99.98908 
  192900    26738    299.19272    303.43049   -2935849.1    23845.037   -2912004.1    249943.58    1.2005075    49.996238    49.996238    99.992477 
  193000    26738    296.87304    1517.9832   -2935742.1    23660.163   -2912081.9    250070.01    1.1999006    50.004667    50.004667    100.00933 
  193100    26738    299.77774   -1496.7864   -2935861.6    23891.662   -2911969.9    250385.52    1.1983886    50.025688    50.025688    100.05138 
  193200    26738    300.70304   -36.835769   -2935717.6    23965.406   -2911752.2    250511.42    1.1977863    50.034072    50.034072    100.06814 
  193300    26738    300.36224    686.00516   -2935585.3    23938.245     -2911647    250604.03    1.1973437    50.040236    50.040236    100.08047 
  193400    26738     300.2119    1495.8137   -2935616.6    23926.264   -2911690.3    250778.63    1.1965101    50.051855    50.051855    100.10371 
  193500    26738    299.07846    771.12077   -2935847.2    23835.931   -2912011.2    250979.31    1.1955533    50.065202    50.065202     100.1304 
  193600    26738    298.10644   -2188.0218   -2935903.2    23758.463   -2912144.7    250851.74    1.1961613    50.056718    50.056718    100.11344 
  193700    26738    299.01821    774.97464   -2935840.4    23831.129   -2912009.3    250750.45    1.1966445     50.04998     50.04998    100.09996 
  193800    26738    302.75701   -96.692638   -2935955.6    24129.104   -2911826.5     250969.7    1.1955991    50.064563    50.064563    100.12913 
  193900    26738    302.43857   -1345.8672   -2935940.9    24103.724   -2911837.2    251236.16    1.1943311    50.082275    50.082275    100.16455 
  194000    26738    301.39903   -699.64765   -2935939.7    24020.875   -2911918.8     251169.5    1.1946481    50.077845    50.077845    100.15569 
  194100    26738    300.03727    959.34079   -2935825.1    23912.346   -2911912.7    251057.58    1.1951806    50.070406    50.070406    100.14081 
  194200    26738    300.39844     2847.438   -2935827.3     23941.13   -2911886.2    250809.03     1.196365    50.053877    50.053877    100.10775 
  194300    26738    299.37912    307.56642     -2935751    23859.893   -2911891.1    251044.35    1.1952436    50.069527    50.069527    100.13905 
  194400    26738    300.10361    100.03123   -2935735.2    23917.633   -2911817.5    251271.79    1.1941617    50.084643    50.084643    100.16929 
  194500    26738    300.54877     1838.988   -2935613.5    23953.112   -2911660.4    251112.12     1.194921    50.074032    50.074032    100.14806 
  194600    26738     302.6276    2715.6734   -2935758.1    24118.789   -2911639.3    251010.73    1.1954037    50.067291    50.067291    100.13458 
  194700    26738    296.62956    1992.2933     -2935553    23640.758   -2911912.2    251082.03    1.1950642    50.072031    50.072031    100.14406 
  194800    26738      297.322   -12.325384   -2935595.8    23695.944   -2911899.9    251715.35    1.1920574    50.114096    50.114096    100.22819 
  194900    26738    298.11492   -1795.1819   -2935474.8    23759.139   -2911715.7    252049.77    1.1904758     50.13628     50.13628    100.27256 
  195000    26738    301.46598    1065.8202     -2935617    24026.211   -2911590.8    251915.87    1.1911086      50.1274      50.1274     100.2548 
  195100    26738    300.83425    3461.0044   -2935677.1    23975.864   -2911701.2     251743.5    1.1919241    50.115964    50.115964    100.23193 
  195200    26738    301.25843    814.20772   -2935822.8     24009.67   -2911813.2    251798.34    1.1916646    50.119603    50.119603    100.23921 
  195300    26738    299.70685   -1024.6479   -2935781.8    23886.012   -2911895.8    251788.39    1.1917116    50.118943    50.118943    100.23789 
  195400    26738    301.34586    764.68246   -2935910.8    24016.638   -2911894.2    251800.81    1.1916528    50.119767    50.119767    100.23953 
  195500    26738    300.20583   -1658.6502   -2935868.4     23925.78   -2911942.6    252047.74    1.1904854    50.136145    50.136145    100.27229 
  195600    26738    299.11478   -1528.1812   -2935765.1    23838.825   -2911926.2    251854.48    1.1913989    50.123328    50.123328    100.24666 
  195700    26738    301.15348    -2978.302   -2935698.1    24001.305   -2911696.8    251510.77     1.193027    50.100516    50.100516    100.20103 
  195800    26738    303.23317    1076.3155   -2935811.3    24167.053   -2911644.2    251314.14    1.1939605    50.087456    50.087456    100.17491 
  195900    26738    299.17535    1029.0168   -2935718.9    23843.652   -2911875.3    251141.33     1.194782    50.075973    50.075973    100.15195 
  196000    26738    298.14128    1318.1898   -2935822.6     23761.24   -2912061.4     250903.4     1.195915    50.060155    50.060155    100.12031 
  196100    26738    299.41718    2188.6346   -2935817.9    23862.926   -2911954.9     250811.8    1.1963518    50.054061    50.054061    100.10812 
  196200    26738    299.45776    573.30305   -2935683.4     23866.16   -2911817.2    251076.43    1.1950909     50.07166     50.07166    100.14332 
  196300    26738     299.5447    341.29747   -2935576.2    23873.089   -2911703.1    251081.96    1.1950646    50.072027    50.072027    100.14405 
  196400    26738    300.39713    466.46266   -2935658.2    23941.026   -2911717.2    250711.72    1.1968294    50.047403    50.047403    100.09481 
  196500    26738     300.4957   -329.69159   -2935863.4    23948.882   -2911914.5    250582.92    1.1974446    50.038831    50.038831    100.07766 
  196600    26738    298.95335   -1283.5812   -2935918.7    23825.959   -2912092.8    250592.23    1.1974001    50.039451    50.039451     100.0789 
  196700    26738    298.10321   -1227.5318   -2935844.2    23758.205     -2912086    250680.26    1.1969796    50.045309    50.045309    100.09062 
  196800    26738    300.61132    3750.8363   -2935765.1    23958.096     -2911807    250668.58    1.1970354    50.044532    50.044532    100.08906 
  196900    26738     301.3079    1073.2928   -2935727.1    24013.613   -2911713.5    250697.22    1.1968986    50.046438    50.046438    100.09288 
  197000    26738    301.33779   -2111.7985   -2935795.2    24015.994   -2911779.3    250563.85    1.1975357    50.037562    50.037562    100.07512 
  197100    26738    297.84708   -1278.1608   -2935634.5    23737.792   -2911896.7    250512.21    1.1977825    50.034124    50.034124    100.06825 
  197200    26738    298.04692   -624.22467   -2935777.5    23753.719   -2912023.8    250618.85    1.1972729    50.041223    50.041223    100.08245 
  197300    26738    296.45726    2416.1758   -2935859.6    23627.026   -2912232.5    250582.23    1.1974479    50.038785    50.038785    100.07757 
  197400    26738    298.88688    3663.9312   -2935913.6    23820.662   -2912092.9    250501.52    1.1978337    50.033412    50.033412    100.06682 
  197500    26738     301.3533   -10.742183   -2935871.2    24017.231   -2911853.9    250542.36    1.1976384    50.036131    50.036131    100.07226 
  197600    26738    300.79967   -1708.8251   -2935758.2    23973.108   -2911785.1    250633.64    1.1972022    50.042207    50.042207    100.08441 
  197700    26738    300.59376    2536.6608   -2935783.5    23956.697   -2911826.8    250726.53    1.1967587    50.048389    50.048389    100.09678 
  197800    26738    297.71925   -3071.4207   -2935697.4    23727.604   -2911969.8    250999.81    1.1954557    50.066565    50.066565    100.13313 
  197900    26738    297.22498   -1702.3073   -2935965.8    23688.212   -2912277.6    251236.41    1.1943299    50.082292    50.082292    100.16458 
  198000    26738    296.56648    -1206.849     -2935966    23635.731   -2912330.3    251206.01    1.1944744    50.080272    50.080272    100.16054 
  198100    26738     297.3664    1756.6513   -2935804.2    23699.483   -2912104.7    251024.65    1.1953374    50.068217    50.068217    100.13643 
  198200    26738    299.32233   -768.08505   -2935808.2    23855.366   -2911952.8    251147.69    1.1947518    50.076396    50.076396    100.15279 
  198300    26738    300.52296    3849.9514   -2935744.2    23951.055   -2911793.1    250885.65    1.1959996    50.058974    50.058974    100.11795 
  198400    26738    300.59228    1584.7251   -2935618.1    23956.579   -2911661.5    250697.91    1.1968953    50.046484    50.046484    100.09297 
  198500    26738    300.87592    -534.3847     -2935611    23979.184   -2911631.8    250524.33    1.1977246    50.034931    50.034931    100.06986 
  198600    26738    298.11135    624.31125   -2935704.2    23758.854   -2911945.4    250669.73    1.1970299    50.044609    50.044609    100.08922 
  198700    26738    298.42663   -772.76126     -2935884    23783.981     -2912100    250842.57    1.1962051    50.056108    50.056108    100.11222 
  198800    26738    300.80316    234.65862   -2935982.8    23973.386   -2912009.4    251089.05    1.1950308    50.072498    50.072498      100.145 
  198900    26738    299.33284    1916.9995   -2935671.5    23856.204   -2911815.3    251248.25    1.1942736    50.083078    50.083078    100.16616 
  199000    26738    302.43836    174.12065   -2935774.1    24103.708   -2911670.4    251182.87    1.1945845    50.078734    50.078734    100.15747 
  199100    26738    298.94679    734.56335   -2935551.9    23825.437   -2911726.4    251091.58    1.1950188    50.072666    50.072666    100.14533 
  199200    26738    298.81971    -2526.577   -2935599.7    23815.309   -2911784.4    250956.66    1.1956612    50.063696    50.063696    100.12739 
  199300    26738    300.62468   -471.04923   -2935772.3    23959.161   -2911813.2     250947.8    1.1957035    50.063107    50.063107    100.12621 
  199400    26738    300.87643   -1876.3737   -2935882.5    23979.226   -2911903.3    251075.24    1.1950965     50.07158     50.07158    100.14316 
  199500    26738    298.85014   -1797.7284   -2935984.6    23817.734   -2912166.9    251106.99    1.1949454    50.073691    50.073691    100.14738 
  199600    26738    301.14435    3523.7016   -2936093.1    24000.578   -2912092.5    251231.03    1.1943555    50.081934    50.081934    100.16387 
  199700    26738    301.25016    1742.3009   -2935890.4    24009.011   -2911881.4    251172.33    1.1946346    50.078033    50.078033    100.15607 
  199800    26738    300.16998   -395.82331   -2935764.9    23922.923   -2911841.9    251095.86    1.1949984    50.072951    50.072951     100.1459 
  199900    26738    299.31587   -518.55343   -2935735.6    23854.852   -2911880.8    251254.43    1.1942442    50.083489    50.083489    100.16698 
  200000    26738    299.37816   -123.69893   -2935799.6    23859.816   -2911939.7    251272.33    1.1941592    50.084678    50.084678    100.16936 
Loop time of 56599.5 on 28 procs for 200000 steps with 26738 atoms

Performance: 0.076 ns/day, 314.442 hours/ns, 3.534 timesteps/s
99.8% CPU use with 28 MPI tasks x no OpenMP threads

MPI task timing breakdown:
Section |  min time  |  avg time  |  max time  |%varavg| %total
---------------------------------------------------------------
Pair    | 39542      | 41422      | 43294      | 390.1 | 73.19
Neigh   | 2802.4     | 2970.6     | 3189.1     | 194.0 |  5.25
Comm    | 110.99     | 1710.8     | 3191.8     |1623.6 |  3.02
Output  | 1.1948     | 1.201      | 1.3435     |   2.5 |  0.00
Modify  | 9999.5     | 10488      | 11348      | 510.8 | 18.53
Other   |            | 6.614      |            |       |  0.01

Nlocal:    954.929 ave 1014 max 879 min
Histogram: 3 2 1 2 1 3 5 5 2 4
Nghost:    11705.1 ave 12012 max 11341 min
Histogram: 2 2 0 4 4 6 2 2 3 3
Neighs:    945215 ave 1.02948e+06 max 851058 min
Histogram: 6 0 0 1 4 1 6 7 0 3

Total # of neighbors = 26466010
Ave neighs/atom = 989.828
Neighbor list builds = 20000
Dangerous builds not checked
write_restart	restart.npt_equi
unfix npt_equi
#unfix bd
undump npt_dump


Please see the log.cite file for references relevant to this simulation

Total wall time: 15:43:38
