LAMMPS (2 Aug 2019)
# lammps code to simulate tension test on RVE of nanocomposite with crack
# crack needs to be initiated first
# system is already equilibrated
# delete some atoms from a region to intiate a crack
# 20 % functionalized cnt with -OH group
# no cnt fix during equilibration in MS
# load equilibrated structure

read_restart    restart.npt_equi
  restoring atom style charge from restart
  orthogonal box = (-1.5027 -1.59233 4.22182) to (48.582 48.4923 104.391)
  2 by 2 by 7 MPI processor grid
  pair style reax/c stores no restart info
  26738 atoms
  read_restart CPU = 0.0257039 secs

# ReaxFF potential to define interatomic interactions

pair_style	reax/c control_file lgvdw yes
pair_coeff	* * ffield.reax.lg C C H O H C C C O O C C
Reading potential file ffield.reax.lg with DATE: 2012-01-06

neighbor	4 bin
neigh_modify	every 10 delay 0 check no

thermo 100
thermo_style custom step atoms temp press pe ke etotal vol density lx ly lz      #output variables

compute pnc_temp all temp
compute pnc_pe all pe/atom
compute pnc_stress all stress/atom pnc_temp pair bond
compute pnc_str all reduce sum c_pnc_stress[3]

variable tmpz equal "lz"
variable L0z equal ${tmpz}
variable L0z equal 100.169356625389
variable tmpx equal "lx"
variable L0x equal ${tmpx}
variable L0x equal 50.0846783126944
variable tmpy equal "ly"
variable L0y equal ${tmpy}
variable L0y equal 50.0846783126944

# define groups of atoms to delete

fix std all qeq/reax 1 0.0 10.0 1e-6 reax/c

region atoms_for_deletion block EDGE 16.5 EDGE EDGE 50.94541 53.44541              # NOTE: box size will change after equilibration
delete_atoms region atoms_for_deletion
Deleted 231 atoms, new total = 26507
reset_ids
Resetting atom IDs ...
Unused restart file global fix info:
  fix style: npt, fix ID: npt_equi
Neighbor list info ...
  update every 10 steps, delay 0 steps, check no
  max neighbors/atom: 2000, page size: 100000
  master list distance cutoff = 14
  ghost atom cutoff = 14
  binsize = 7, bins = 8 8 15
  2 neighbor lists, perpetual/occasional/extra = 2 0 0
  (1) pair reax/c, perpetual
      attributes: half, newton off, ghost
      pair build: half/bin/newtoff/ghost
      stencil: half/ghost/bin/3d/newtoff
      bin: standard
  (2) fix qeq/reax, perpetual, copy from (1)
      attributes: half, newton off, ghost
      pair build: copy
      stencil: none
      bin: none

reset_timestep 0
timestep 0.25
thermo_style custom step atoms temp press pe ke etotal vol density lx ly lz
fix 1 all npt temp 300.0 300.0 25.0 x 0.0 0.0 250.0 y 0.0 0.0 250.0 couple xy
fix 2 all deform 1 z erate 0.00001 units box
fix bd all reax/c/bonds 1000 bonds.reaxc
dump deform1 all custom 1000 dump.deform id type x y z

variable strainz equal "(lz-v_L0z)/v_L0z"
variable strainx equal "(lx-v_L0x)/v_L0x"
variable strainy equal "(ly-v_L0y)/v_L0y"
variable stressz equal "-pzz/10000"
variable p1 equal "v_stressz"
variable p2 equal "v_strainz"
variable p3 equal "v_strainx"
variable p4 equal "v_strainy"
fix 3 all print 100 "${p1} ${p2} ${p3} ${p4}" file pmma_pnc_funct_20_crack.txt screen no

run 600000
Per MPI rank memory allocation (min/avg/max) = 269.6 | 283.4 | 294.4 Mbytes
Step Atoms Temp Press PotEng KinEng TotEng Volume Density Lx Ly Lz 
       0    26507     299.3369   -836.92832     -2905262    23650.414   -2881611.6    251272.33    1.1843401    50.084678    50.084678    100.16936 
     100    26507    313.25401   -1766.1387   -2906776.9    24749.996   -2882026.9    251344.61    1.1839995    50.085622    50.085622     100.1944 
     200    26507    307.70635   -1800.8487   -2907012.7    24311.679     -2882701    251500.53    1.1832655    50.094894    50.094894    100.21944 
     300    26507    305.86755    724.38063     -2907522    24166.396   -2883355.6    251438.85    1.1835558    50.082494    50.082494    100.24448 
     400    26507    303.56065    1093.6403   -2907907.8     23984.13   -2883923.7    251188.61    1.1847348    50.051315    50.051315    100.26953 
     500    26507    299.90253   -791.16602   -2907970.8    23695.104   -2884275.7    251173.41    1.1848065    50.043551    50.043551    100.29457 
     600    26507    298.56724    136.84103   -2908037.1    23589.604   -2884447.5    251102.39    1.1851416    50.030231    50.030231    100.31961 
     700    26507    298.38647   -949.93553   -2908171.2    23575.321   -2884595.9    250875.89    1.1862116    50.001421    50.001421    100.34465 
     800    26507    298.78923    1983.3985   -2908306.4    23607.143   -2884699.3     250736.5     1.186871    49.981292    49.981292     100.3697 
     900    26507     299.5236    1006.2087   -2908349.5    23665.165   -2884684.3    250686.42    1.1871082    49.970067    49.970067    100.39474 
    1000    26507    296.93682    24.496049   -2908038.2    23460.785   -2884577.4    250480.33    1.1880849    49.943294    49.943294    100.41978 
    1100    26507    302.26032   -1319.7774   -2908377.4    23881.392     -2884496    250311.61    1.1888857    49.920246    49.920246    100.44482 
    1200    26507    300.88749   -2756.4551   -2908479.4    23772.925   -2884706.5    250342.27    1.1887401    49.917082    49.917082    100.46986 
    1300    26507    298.80747    246.02814   -2908571.7    23608.584   -2884963.1    250252.72    1.1891655    49.901934    49.901934    100.49491 
    1400    26507     297.8117    188.43308   -2908556.6    23529.909   -2885026.7       250101    1.1898869     49.88059     49.88059    100.51995 
    1500    26507    299.12208   -797.62974   -2908546.4    23633.442     -2884913    250268.43    1.1890908     49.89107     49.89107    100.54499 
    1600    26507    300.15373   -86.712823   -2908380.5    23714.952   -2884665.5    250441.48    1.1882692    49.902101    49.902101    100.57003 
    1700    26507    300.30122    -1667.336   -2908343.3    23726.604   -2884616.7    250905.57    1.1860713    49.942099    49.942099    100.59508 
    1800    26507    299.96299   -1437.0697   -2908470.3    23699.881   -2884770.4    251286.99     1.184271    49.973825    49.973825    100.62012 
    1900    26507    300.60996   -714.01869     -2908653    23750.998     -2884902    251567.73    1.1829494    49.995512    49.995512    100.64516 
    2000    26507    301.42159    135.15569   -2908715.9    23815.124   -2884900.8    251801.14    1.1818529    50.012478    50.012478     100.6702 
    2100    26507    300.68646   -1578.8123   -2908640.4    23757.042   -2884883.4    252090.16    1.1804978     50.03495     50.03495    100.69525 
    2200    26507    299.27557   -963.55075   -2908501.3    23645.568   -2884855.8    252269.91    1.1796567    50.046562    50.046562    100.72029 
    2300    26507     300.2718    1834.7365   -2908516.6     23724.28   -2884792.3    252032.17    1.1807695    50.016756    50.016756    100.74533 
    2400    26507    301.21396    1153.2901   -2908537.3     23798.72   -2884738.6    251898.18    1.1813976    49.997246    49.997246    100.77037 
    2500    26507    300.86996   -2557.9608   -2908587.1    23771.541   -2884815.5    251883.31    1.1814673    49.989559    49.989559    100.79542 
    2600    26507    298.83701    238.00964   -2908655.3    23610.918   -2885044.4    251887.61    1.1814472    49.983777    49.983777    100.82046 
    2700    26507    297.32186   -582.67021   -2908607.7    23491.207   -2885116.5     251758.7    1.1820521    49.964781    49.964781     100.8455 
    2800    26507    301.03332    1312.4073   -2908700.6    23784.448   -2884916.2    251640.84    1.1826057    49.946882    49.946882    100.87054 
    2900    26507    300.88127    574.43442   -2908557.2    23772.434   -2884784.8    251662.53    1.1825038    49.942836    49.942836    100.89558 
    3000    26507    299.63378   -3389.2668   -2908513.8     23673.87   -2884839.9    251568.01    1.1829481     49.92726     49.92726    100.92063 
    3100    26507    299.09845    815.54667   -2908565.5    23631.574     -2884934    251398.39    1.1837462    49.904235    49.904235    100.94567 
    3200    26507     299.6715    83.015441   -2908770.6    23676.851   -2885093.7    251513.62    1.1832039     49.90948     49.90948    100.97071 
    3300    26507    296.22507    2057.3854   -2908607.4    23404.551   -2885202.8    251436.79    1.1835655    49.895669    49.895669    100.99575 
    3400    26507    301.74468     -1097.98   -2908802.3    23840.652   -2884961.7    251584.63      1.18287    49.904149    49.904149     101.0208 
    3500    26507    299.26999    -1745.284   -2908371.1    23645.128     -2884726    251572.82    1.1829255    49.896794    49.896794    101.04584 
    3600    26507    300.71988    741.85027     -2908505    23759.683   -2884745.3    251627.41    1.1826688    49.896025    49.896025    101.07088 
    3700    26507    300.28885   -486.05073   -2908650.2    23725.627   -2884924.6    251738.83    1.1821454    49.900889    49.900889    101.09592 
    3800    26507    298.89702    841.69156   -2908662.5     23615.66   -2885046.8    251712.09     1.182271     49.89206     49.89206    101.12097 
    3900    26507    301.43719   -464.31456   -2908704.2    23816.356   -2884887.9    251618.25    1.1827119    49.876584    49.876584    101.14601 
    4000    26507    301.55507    789.35502   -2908388.4     23825.67   -2884562.8    251483.94    1.1833435    49.857099    49.857099    101.17105 
    4100    26507    302.83198   -1050.9032   -2908579.1    23926.559   -2884652.5     250995.9    1.1856445    49.802534    49.802534    101.19609 
    4200    26507       299.54    367.83241   -2908583.5    23666.461   -2884917.1    250591.83    1.1875563    49.756274    49.756274    101.22113 
    4300    26507    301.46538    422.52266     -2908849    23818.584   -2885030.4    250535.86    1.1878216    49.744564    49.744564    101.24618 
    4400    26507    299.09933    149.70473   -2908790.1    23631.644   -2885158.5    250659.37    1.1872363    49.750672    49.750672    101.27122 
    4500    26507     299.2015   -540.12774   -2908869.6    23639.716   -2885229.8    250803.74    1.1865528    49.758846    49.758846    101.29626 
    4600    26507    301.64551   -465.35364   -2909040.6    23832.816   -2885207.8    251016.93    1.1855451    49.773837    49.773837     101.3213 
    4700    26507    298.47432    4094.4804     -2908725    23582.262   -2885142.7     251206.9    1.1846486    49.786515    49.786515    101.34635 
    4800    26507    298.78928    785.48144   -2908718.2    23607.147   -2885111.1    251355.09    1.1839501    49.795047    49.795047    101.37139 
    4900    26507    301.31828    843.23381   -2908858.9    23806.962     -2885052    251516.15     1.183192    49.804846    49.804846    101.39643 
    5000    26507    300.38104   -877.59387   -2908694.4    23732.911   -2884961.5    251931.78      1.18124    49.839826    49.839826    101.42147 
    5100    26507    299.40382    1770.4592   -2908545.2    23655.702   -2884889.5    252290.32    1.1795613    49.869123    49.869123    101.44652 
    5200    26507     301.2399   -110.73409   -2908767.7    23800.769     -2884967    252410.87    1.1789979     49.87488     49.87488    101.47156 
    5300    26507     297.9523    161.78929   -2908775.9    23541.018   -2885234.9    252447.46     1.178827    49.872341    49.872341     101.4966 
    5400    26507    298.94475   -859.24835   -2908831.3     23619.43   -2885211.9    252375.82    1.1791617    49.859113    49.859113    101.52164 
    5500    26507    301.26082    1277.9895   -2908873.5    23802.422   -2885071.1    252197.19    1.1799969    49.835319    49.835319    101.54669 
    5600    26507    302.98933    881.20914   -2908841.8     23938.99   -2884902.8     252167.9    1.1801339    49.826282    49.826282    101.57173 
    5700    26507    301.14121    2259.3774     -2908690    23792.972   -2884897.1    252378.75     1.179148    49.840965    49.840965    101.59677 
    5800    26507    298.96591   -155.90866     -2908832    23621.103   -2885210.9    252408.97    1.1790068    49.837807    49.837807    101.62181 
    5900    26507    300.11524   -738.31129   -2909051.9    23711.911     -2885340    252508.51    1.1785421    49.841492    49.841492    101.64685 
    6000    26507    298.40713   -1313.7922     -2908866    23576.954   -2885289.1    252625.53    1.1779961      49.8469      49.8469     101.6719 
    6100    26507    301.45058   -1183.4913   -2908844.1    23817.415   -2885026.7    252875.59    1.1768312    49.865424    49.865424    101.69694 
    6200    26507    299.50686   -160.94135   -2908574.9    23663.842   -2884911.1    253069.93    1.1759275    49.878441    49.878441    101.72198 
    6300    26507    299.45828    -1626.981   -2908548.4    23660.005   -2884888.4    252987.05    1.1763128    49.864135    49.864135    101.74702 
    6400    26507    300.19265    1621.9746   -2908683.7    23718.026   -2884965.7    252699.87    1.1776496    49.829693    49.829693    101.77207 
    6500    26507    297.81314   -177.78912   -2908819.4    23530.023   -2885289.4    252599.65    1.1781168    49.813683    49.813683    101.79711 
    6600    26507    298.86111   -630.22805   -2908956.6    23612.822   -2885343.8    252404.88    1.1790259    49.788351    49.788351    101.82215 
    6700    26507      298.044    324.06203   -2908783.6    23548.263   -2885235.3    252268.37    1.1796639    49.768765    49.768765    101.84719 
    6800    26507    300.55967   -840.38185     -2908838    23747.024     -2885091    252375.21    1.1791645    49.773185    49.773185    101.87224 
    6900    26507    301.04924   -480.06076   -2908763.8    23785.705   -2884978.1    252464.86    1.1787458    49.775907    49.775907    101.89728 
    7000    26507    302.33195   -911.94221   -2908840.7    23887.051   -2884953.7    252400.92    1.1790444    49.763488    49.763488    101.92232 
    7100    26507    298.78124    1850.9368   -2908847.9    23606.512   -2885241.3    252406.07    1.1790204    49.757883    49.757883    101.94736 
    7200    26507    298.12166    2518.3678   -2908976.1    23554.399   -2885421.7    252576.12    1.1782266    49.768529    49.768529    101.97241 
    7300    26507    299.03381    1130.3503   -2908950.1    23626.467   -2885323.7    252714.29    1.1775824    49.776029    49.776029    101.99745 
    7400    26507    298.37121   -2097.2021   -2908722.3    23574.116   -2885148.2    252707.95    1.1776119    49.769296    49.769296    102.02249 
    7500    26507    300.50837    3.3011623   -2908711.4    23742.971   -2884968.4     252671.8    1.1777804    49.759629    49.759629    102.04753 
    7600    26507    299.39348   -970.86163   -2908596.1    23654.885   -2884941.2    252604.73    1.1780931    49.746921    49.746921    102.07257 
    7700    26507    302.01222    778.54057   -2908835.2    23861.789   -2884973.4    252515.98    1.1785072    49.732081    49.732081    102.09762 
    7800    26507     301.4988   -1212.7155   -2908839.4    23821.224   -2885018.2    252680.85    1.1777382    49.742214    49.742214    102.12266 
    7900    26507    299.51652    -1593.162   -2908936.9    23664.606   -2885272.3    252873.16    1.1768426    49.755038    49.755038     102.1477 
    8000    26507    298.50904   -1101.1153   -2909016.9    23585.006   -2885431.9    253052.74    1.1760074    49.766602    49.766602    102.17274 
    8100    26507    299.67604     3825.485   -2908927.6     23677.21   -2885250.4    252863.57    1.1768872    49.741902    49.741902    102.19779 
    8200    26507    300.26491   -2012.7143   -2908804.4    23723.736   -2885080.6     252871.7    1.1768494    49.736608    49.736608    102.22283 
    8300    26507    301.56359    343.06757     -2908837    23826.344   -2885010.6     252667.8     1.177799    49.710464    49.710464    102.24787 
    8400    26507    298.88613      618.464   -2908688.9    23614.799   -2885074.1    252514.91    1.1785122    49.689337    49.689337    102.27291 
    8500    26507     297.6254   -1578.5737   -2908774.7     23515.19   -2885259.5    252235.44    1.1798179    49.655753    49.655753    102.29796 
    8600    26507    298.98974   -1057.5964   -2909042.6    23622.986   -2885419.7    251857.88    1.1815866    49.612504    49.612504      102.323 
    8700    26507    300.07534   -1692.8236   -2908870.2    23708.758   -2885161.4    251707.28    1.1822935    49.591601    49.591601    102.34804 
    8800    26507    300.54714   -1764.9392   -2908741.4    23746.034   -2884995.3    251897.91    1.1813988    49.604308    49.604308    102.37308 
    8900    26507    299.06234   -3952.0566   -2908726.8    23628.722   -2885098.1    252217.88    1.1799001    49.629732    49.629732    102.39812 
    9000    26507    300.64096   -404.98635   -2908977.4    23753.447     -2885224    252392.09    1.1790857      49.6408      49.6408    102.42317 
    9100    26507    298.71571   -831.64648   -2908928.4    23601.334   -2885327.1    252621.31    1.1780158    49.657266    49.657266    102.44821 
    9200    26507    298.44649    356.41864   -2908835.3    23580.063   -2885255.3    252703.02    1.1776349    49.659227    49.659227    102.47325 
    9300    26507     302.0635   -645.56077   -2908816.3    23865.841   -2884950.5    252680.27    1.1777409    49.650925    49.650925    102.49829 
    9400    26507    300.77063    90.250482   -2908652.7    23763.692     -2884889    252604.25    1.1780954    49.637393    49.637393    102.52334 
    9500    26507    299.38993   -664.28963   -2908758.2    23654.604   -2885103.6     252443.5    1.1788456    49.615537    49.615537    102.54838 
    9600    26507    300.70128    502.20795     -2908999    23758.213   -2885240.8    252274.98     1.179633    49.592919    49.592919    102.57342 
    9700    26507    301.55659   -2321.3173   -2909127.9    23825.791   -2885302.2    252322.25     1.179412    49.591512    49.591512    102.59846 
    9800    26507    302.47052   -859.79356   -2909192.7        23898   -2885294.7    252441.66    1.1788541    49.597192    49.597192    102.62351 
    9900    26507    299.01818    1335.3743     -2908874    23625.232   -2885248.7    252534.52    1.1784207    49.600262    49.600262    102.64855 
   10000    26507    297.67896    1149.0027   -2908669.3    23519.421   -2885149.9    252649.98    1.1778821    49.605549    49.605549    102.67359 
   10100    26507    300.42833     -50.0001   -2908689.8    23736.648   -2884953.2    252636.53    1.1779448     49.59818     49.59818    102.69863 
   10200    26507    302.29239    610.17234   -2908817.9    23883.926     -2884934    252688.03    1.1777048    49.597189    49.597189    102.72368 
   10300    26507    301.03167    -600.5808   -2908848.9    23784.317   -2885064.6    252922.66    1.1766122    49.614162    49.614162    102.74872 
   10400    26507     299.7406    1280.9119   -2908934.9     23682.31   -2885252.6    253268.03    1.1750077    49.641977    49.641977    102.77376 
   10500    26507    299.75896   -232.36263     -2908809    23683.761   -2885125.2     253554.7    1.1736793    49.664012    49.664012     102.7988 
   10600    26507    300.55692   -671.77327   -2908718.7    23746.807   -2884971.9    253905.24    1.1720589    49.692279    49.692279    102.82384 
   10700    26507     302.4458   -1899.1515     -2908871    23896.046     -2884975    254060.24    1.1713438    49.701392    49.701392    102.84889 
   10800    26507    298.49445    24.140131   -2908771.2    23583.853   -2885187.4    253821.71    1.1724446    49.672008    49.672008    102.87393 
   10900    26507    298.85503   -1904.0913   -2908838.4    23612.342     -2885226     253538.9    1.1737524    49.638287    49.638287    102.89897 
   11000    26507    298.96266     1849.004   -2908658.2    23620.846   -2885037.3    253273.07    1.1749844    49.606221    49.606221    102.92401 
   11100    26507    301.26023   -2205.4726   -2908683.4    23802.375     -2884881    253063.68    1.1759566    49.579681    49.579681    102.94906 
   11200    26507    300.19505   -1268.3528     -2908708    23718.216   -2884989.8    252984.49    1.1763247    49.565894    49.565894     102.9741 
   11300    26507    299.89771    1056.8652   -2908966.3    23694.723   -2885271.5    252984.24    1.1763258    49.559844    49.559844    102.99914 
   11400    26507     299.9135    202.51242   -2909022.9    23695.971     -2885327    252993.64    1.1762821    49.554741    49.554741    103.02418 
   11500    26507    300.49337    -1664.975     -2908996    23741.786   -2885254.2    252930.85    1.1765741    49.542571    49.542571    103.04923 
   11600    26507    301.60484   -985.91706   -2908938.5    23829.603   -2885108.9    252878.71    1.1768167    49.531446    49.531446    103.07427 
   11700    26507    300.01459    460.84002   -2908771.2    23703.958   -2885067.3    252838.86    1.1770022    49.521527    49.521527    103.09931 
   11800    26507    296.66173   -844.81016   -2908659.5    23439.051   -2885220.4    252897.99     1.176727    49.521303    49.521303    103.12435 
   11900    26507    300.30156   -1308.6654   -2909090.9    23726.631   -2885364.3    252793.62    1.1772128    49.505074    49.505074    103.14939 
   12000    26507    299.91899    -1466.127   -2908987.8    23696.405   -2885291.4    252706.88    1.1776169    49.490572    49.490572    103.17444 
   12100    26507     301.3613   -429.31553   -2908843.2    23810.361   -2885032.8    252712.41    1.1775911    49.485109    49.485109    103.19948 
   12200    26507    302.02828   -1203.2176   -2908840.9    23863.058   -2884977.8    252967.36    1.1764043    49.504059    49.504059    103.22452 
   12300    26507    299.88367   -841.84231   -2908980.7    23693.614   -2885287.1    253288.17    1.1749143    49.529431    49.529431    103.24956 
   12400    26507    298.35464   -1097.3563   -2908939.5    23572.807   -2885366.7    253521.26    1.1738341    49.546207    49.546207    103.27461 
   12500    26507    299.14094    1492.4242   -2908903.4    23634.932   -2885268.5    253340.49    1.1746717    49.522537    49.522537    103.29965 
   12600    26507    300.92728   -3589.0319   -2908852.5    23776.069   -2885076.5    253237.86    1.1751477    49.506504    49.506504    103.32469 
   12700    26507    300.95967   -345.32868   -2908828.7    23778.628   -2885050.1    253215.21    1.1752528    49.498292    49.498292    103.34973 
   12800    26507    298.08589   -899.53236   -2908808.3    23551.573   -2885256.8    253034.02    1.1760944    49.474586    49.474586    103.37478 
   12900    26507     297.2704   -800.63406     -2908950    23487.141   -2885462.9    252884.63    1.1767892    49.453989    49.453989    103.39982 
   13000    26507    299.77913   -194.66991     -2908987    23685.354   -2885301.6    252743.87    1.1774446    49.434238    49.434238    103.42486 
   13100    26507    301.62422   -1818.9172   -2908821.1    23831.134   -2884989.9    252801.13    1.1771779    49.433853    49.433853     103.4499 
   13200    26507    301.32648   -1942.2849   -2908850.6     23807.61     -2885043    253012.59     1.176194    49.448539    49.448539    103.47495 
   13300    26507    300.00919   -1786.3115   -2908872.3    23703.532   -2885168.8    252962.52    1.1764268    49.437664    49.437664    103.49999 
   13400    26507    299.74715   -1272.7438   -2909017.9    23682.828     -2885335    252771.59    1.1773154    49.413026    49.413026    103.52503 
   13500    26507    298.57722   -780.37873   -2909103.1    23590.392   -2885512.7    252823.96    1.1770716    49.412168    49.412168    103.55007 
   13600    26507    298.06975   -4188.5746   -2909117.6    23550.298   -2885567.3    252935.96    1.1765504    49.417137    49.417137    103.57511 
   13700    26507    300.80116    200.88416   -2909076.7    23766.105   -2885310.6    253008.27    1.1762141    49.418226    49.418226    103.60016 
   13800    26507    299.48478    -1.668927   -2908740.9    23662.098   -2885078.8    253185.75    1.1753896    49.429582    49.429582     103.6252 
   13900    26507     301.4237   -2727.6491   -2908816.7    23815.291   -2885001.4    253435.08    1.1742333     49.44794     49.44794    103.65024 
   14000    26507    300.14653   -1459.7266   -2908798.1    23714.383   -2885083.7     253634.6    1.1733095    49.461426    49.461426    103.67528 
   14100    26507    299.29335   -3511.8219   -2908968.3    23646.974   -2885321.4    253549.88    1.1737016    49.447193    49.447193    103.70033 
   14200    26507    297.10525    1306.0859     -2908926    23474.093     -2885452    253080.23    1.1758797    49.395413    49.395413    103.72537 
   14300    26507    302.26002   -893.38035   -2909168.8    23881.368   -2885287.4    252809.26      1.17714    49.363004    49.363004    103.75041 
   14400    26507    300.33294    34.813556   -2908937.9    23729.111   -2885208.8     252746.1    1.1774342    49.350881    49.350881    103.77545 
   14500    26507    301.47095    470.98263   -2908970.6    23819.024   -2885151.6     252816.1    1.1771082    49.351761    49.351761     103.8005 
   14600    26507    300.99085   -1821.4058   -2908892.1    23781.092     -2885111     252973.9    1.1763739    49.361206    49.361206    103.82554 
   14700    26507    301.10413   -604.71883   -2908808.4    23790.042   -2885018.3    252893.67    1.1767471    49.347427    49.347427    103.85058 
   14800    26507    301.01247   -2375.1795   -2908715.8      23782.8     -2884933    252766.32      1.17734    49.329054    49.329054    103.87562 
   14900    26507    298.59927   -1845.8348   -2908665.5    23592.135   -2885073.3    253011.64    1.1761985    49.347037    49.347037    103.90067 
   15000    26507      299.499   -819.39987   -2908936.7    23663.222   -2885273.4    253276.99    1.1749662    49.366959    49.366959    103.92571 
   15100    26507     297.3366   -2921.0975   -2908812.8    23492.372   -2885320.4    253299.12    1.1748635    49.363168    49.363168    103.95075 
   15200    26507     301.6212    -42.38375   -2908901.1    23830.895   -2885070.2    253464.82    1.1740955    49.373364    49.373364    103.97579 
   15300    26507    301.10303    379.31802   -2908744.6    23789.955   -2884954.6     253663.2    1.1731773    49.386735    49.386735    104.00083 
   15400    26507     299.7121   -219.21027   -2908728.5    23680.058   -2885048.5    253862.84    1.1722546    49.400219    49.400219    104.02588 
   15500    26507    301.03401   -3637.9918   -2909007.9    23784.502   -2885223.4       254069    1.1713034    49.414327    49.414327    104.05092 
   15600    26507     299.3015   -485.78752   -2909023.4    23647.618   -2885375.7    253864.73    1.1722459    49.388515    49.388515    104.07596 
   15700    26507    299.47485    2494.3195   -2909010.8    23661.314   -2885349.5    253712.39    1.1729498    49.367755    49.367755      104.101 
   15800    26507    298.94757   -905.54331   -2908805.8    23619.654   -2885186.1    253764.22    1.1727102     49.36686     49.36686    104.12605 
   15900    26507     302.5949   -1724.8161   -2908781.5    23907.827   -2884873.7    253875.42    1.1721966    49.371739    49.371739    104.15109 
   16000    26507    302.00783   -1729.1372   -2908879.3    23861.443   -2885017.9    253748.48     1.172783    49.353461    49.353461    104.17613 
   16100    26507    298.02921   -3039.8902   -2908777.2    23547.095   -2885230.1    253898.78    1.1720887    49.362143    49.362143    104.20117 
   16200    26507    299.27661   -1510.7512   -2908971.4     23645.65   -2885325.8    254031.24    1.1714776    49.369085    49.369085    104.22622 
   16300    26507     298.5398   -1514.1076   -2908979.5    23587.436   -2885392.1    253912.03    1.1720276    49.351571    49.351571    104.25126 
   16400    26507    299.86076    1635.4608   -2909151.2    23691.804   -2885459.4     253750.2     1.172775    49.329918    49.329918     104.2763 
   16500    26507    301.51102   -3065.3128   -2909299.6     23822.19   -2885477.4    253903.21    1.1720683    49.338864    49.338864    104.30134 
   16600    26507    299.16849   -559.64033   -2908980.1    23637.109     -2885343    253968.41    1.1717674    49.339276    49.339276    104.32638 
   16700    26507    302.85052    1590.8847   -2909079.1    23928.023   -2885151.1    253738.43    1.1728294    49.311013    49.311013    104.35143 
   16800    26507      300.382   -94.015785   -2908981.1    23732.987   -2885248.2     253728.3    1.1728763    49.304113    49.304113    104.37647 
   16900    26507    296.19858    674.87186     -2908881    23402.457   -2885478.6    253888.36    1.1721368    49.313747    49.313747    104.40151 
   17000    26507    297.56742    565.91403   -2909003.9    23510.609   -2885493.3    254031.61    1.1714759    49.321742    49.321742    104.42655 
   17100    26507    300.29039   -1291.8501   -2909095.8    23725.749   -2885370.1    254042.25    1.1714268    49.316862    49.316862     104.4516 
   17200    26507    300.20902   -2326.5936   -2909011.2     23719.32   -2885291.9    254050.12    1.1713905    49.311715    49.311715    104.47664 
   17300    26507    300.85449   -1610.5185   -2909040.1    23770.318   -2885269.8    253957.32    1.1718186      49.2968      49.2968    104.50168 
   17400    26507    300.18123   -248.35746   -2909130.3    23717.124   -2885413.2    253923.68    1.1719738     49.28763     49.28763    104.52672 
   17500    26507    296.63495   -50.645776   -2909076.8    23436.935   -2885639.9    254074.94    1.1712761    49.296403    49.296403    104.55177 
   17600    26507    297.88775   -1763.9984   -2909024.4    23535.918   -2885488.5    254393.68    1.1698085    49.321409    49.321409    104.57681 
   17700    26507    298.10886   -1691.7955   -2908807.2    23553.388   -2885253.8    254579.32    1.1689555    49.333494    49.333494    104.60185 
   17800    26507    301.09064   -1201.1133   -2908919.7    23788.976   -2885130.8    254561.28    1.1690383    49.325842    49.325842    104.62689 
   17900    26507    300.52933   -2831.4407   -2908978.5    23744.627   -2885233.9     254441.8    1.1695873    49.308365    49.308365    104.65194 
   18000    26507    299.68972   -1479.9089   -2909104.3     23678.29     -2885426    254616.94    1.1687828    49.319431    49.319431    104.67698 
   18100    26507    297.71267    1496.9918   -2908995.2    23522.085   -2885473.1       254807     1.167911    49.331934    49.331934    104.70202 
   18200    26507    300.34865   -2048.0187     -2909100    23730.352   -2885369.6    254848.84    1.1677192    49.330086    49.330086    104.72706 
   18300    26507    300.15457   -731.19968   -2908985.1    23715.018   -2885270.1    255000.31    1.1670256    49.338845    49.338845     104.7521 
   18400    26507    300.85387   -1177.4582   -2908990.4    23770.269   -2885220.1    255171.92    1.1662408    49.349545    49.349545    104.77715 
   18500    26507    300.54225   -441.84565   -2908942.3    23745.648   -2885196.7    255239.87    1.1659303    49.350219    49.350219    104.80219 
   18600    26507    295.32165   -1408.9541   -2908711.3    23333.172   -2885378.2    254988.96    1.1670776    49.320064    49.320064    104.82723 
   18700    26507    297.42201    515.50036   -2908953.5     23499.12   -2885454.4    254740.16    1.1682174    49.290109    49.290109    104.85227 
   18800    26507    302.01376   -2929.3041   -2908969.8    23861.911   -2885107.9    254669.67    1.1685408    49.277405    49.277405    104.87732 
   18900    26507    301.99872    3940.8068   -2908899.2    23860.723   -2885038.4    254623.62    1.1687521    49.267068    49.267068    104.90236 
   19000    26507    302.06596    371.09146   -2909042.2    23866.036   -2885176.2    254479.72     1.169413    49.247267    49.247267     104.9274 
   19100    26507    299.28021   -424.49255     -2909001    23645.935     -2885355    254152.67    1.1709179    49.209739    49.209739    104.95244 
   19200    26507    297.80974    62.570463     -2908932    23529.754   -2885402.3    253907.33    1.1720493    49.180115    49.180115    104.97749 
   19300    26507    302.18862   -2576.0834   -2909193.1    23875.727   -2885317.4    253895.57    1.1721035    49.173111    49.173111    105.00253 
   19400    26507    302.47357    659.12813   -2908833.4     23898.24   -2884935.1    254090.03    1.1712065    49.186073    49.186073    105.02757 
   19500    26507     299.1471    700.50644   -2908601.7    23635.418   -2884966.3    253946.62    1.1718679     49.16633     49.16633    105.05261 
   19600    26507    300.01715   -193.39171   -2908901.8    23704.161   -2885197.7     254009.4    1.1715783    49.166547    49.166547    105.07766 
   19700    26507    298.15011    315.57914   -2908859.2    23556.647   -2885302.5    254135.92     1.170995    49.172931    49.172931     105.1027 
   19800    26507    300.57957   -2279.3855   -2909045.1    23748.597   -2885296.5    254235.02    1.1705386     49.17666     49.17666    105.12774 
   19900    26507    299.34117   -1368.7302   -2908841.6    23650.752   -2885190.9    254361.76    1.1699553    49.183058    49.183058    105.15278 
   20000    26507    300.52951   -1555.1633   -2908616.6    23744.642     -2884872    254552.21      1.16908     49.19561     49.19561    105.17782 
   20100    26507    304.62919   -1101.9586   -2908974.9    24068.555   -2884906.3    254561.91    1.1690355    49.190691    49.190691    105.20287 
   20200    26507    300.67613    -1491.773   -2908841.2    23756.226     -2885085    254322.04     1.170138    49.161659    49.161659    105.22791 
   20300    26507    301.70042   -1352.1298   -2909000.1    23837.154   -2885162.9    254229.65    1.1705633    49.146881    49.146881    105.25295 
   20400    26507    301.28189    1348.9039   -2909069.6    23804.087   -2885265.5    254353.13     1.169995    49.152968    49.152968    105.27799 
   20500    26507    299.48171     824.1599   -2909083.6    23661.855   -2885421.7    254458.39     1.169511    49.157291    49.157291    105.30304 
   20600    26507    297.86133     -1036.03   -2909247.4     23533.83   -2885713.6    254603.06    1.1688465    49.165417    49.165417    105.32808 
   20700    26507    296.67403   -3680.3107   -2909119.6    23440.022   -2885679.6    254736.18    1.1682357    49.172423    49.172423    105.35312 
   20800    26507    299.43632    355.89382   -2909098.1     23658.27   -2885439.8    254807.25    1.1679099    49.173438    49.173438    105.37816 
   20900    26507    297.98991   -415.94553   -2908860.5     23543.99   -2885316.5    254759.89     1.168127    49.163027    49.163027    105.40321 
   21000    26507    298.60165   -344.49521   -2908780.5    23592.323   -2885188.1    254669.12    1.1685433     49.14843     49.14843    105.42825 
   21100    26507    297.97162   -781.26036   -2908609.6    23542.544   -2885067.1    254641.56    1.1686698    49.139934    49.139934    105.45329 
   21200    26507    301.34997   -2223.0364   -2908694.2    23809.466   -2884884.7    254503.73    1.1693027    49.120802    49.120802    105.47833 
   21300    26507    301.28851    1602.4551     -2908757     23804.61   -2884952.4    254232.31     1.170551    49.088775    49.088775    105.50337 
   21400    26507    300.50976   -1044.3862   -2909011.5    23743.081   -2885268.4    254199.61    1.1707016    49.079793    49.079793    105.52842 
   21500    26507    297.88738   -1591.3502   -2908865.9    23535.889     -2885330    254301.88    1.1702308    49.083842    49.083842    105.55346 
   21600    26507    299.10597   -3949.7152   -2908815.4    23632.169   -2885183.2    254258.13    1.1704322    49.073799    49.073799     105.5785 
   21700    26507    301.00243   -921.48594   -2908824.9    23782.007   -2885042.9     254158.5     1.170891    49.058365    49.058365    105.60354 
   21800    26507    302.90731    1598.1489   -2908736.4     23932.51   -2884803.9    254218.87    1.1706129    49.058375    49.058375    105.62859 
   21900    26507    303.58395   -1019.3494   -2908720.1    23985.971   -2884734.1    254469.41    1.1694604    49.076726    49.076726    105.65363 
   22000    26507    299.24409   -328.87527   -2908757.1    23643.082     -2885114    254494.85    1.1693435    49.073364    49.073364    105.67867 
   22100    26507    297.55297   -2773.1822   -2908715.8    23509.467   -2885206.3    254738.38    1.1682256    49.091022    49.091022    105.70371 
   22200    26507    300.30122   -629.64802   -2908799.2    23726.605   -2885072.6    254985.08    1.1670953     49.10897     49.10897    105.72876 
   22300    26507    301.92291   -673.70999   -2908787.8    23854.733   -2884933.1     255175.9    1.1662226    49.121525    49.121525     105.7538 
   22400    26507    301.76794      -2094.5   -2908778.7    23842.489   -2884936.3    255225.34    1.1659967    49.120468    49.120468    105.77884 
   22500    26507    299.31971    1851.0375   -2908923.6    23649.056   -2885274.5     255209.8    1.1660677    49.113159    49.113159    105.80388 
   22600    26507    298.19008   -1223.9506   -2908863.7    23559.805   -2885303.9    255261.42    1.1658319    49.112314    49.112314    105.82893 
   22700    26507    299.63979    4119.8049   -2908835.7    23674.345   -2885161.3    255074.47    1.1666863    49.088519    49.088519    105.85397 
   22800    26507    301.07795   -2572.2272   -2908793.2    23787.973   -2885005.2    255026.94    1.1669038     49.07814     49.07814    105.87901 
   22900    26507    302.77497   -1906.9137   -2908810.2    23922.054   -2884888.2    254514.17    1.1692547    49.022978    49.022978    105.90405 
   23000    26507    300.70365   -1312.6117   -2908827.2      23758.4   -2885068.8    254314.76    1.1701715    48.997977    48.997977    105.92909 
   23100    26507    300.83696   -3301.4055   -2909092.9    23768.933   -2885323.9    254138.59    1.1709827    48.975215    48.975215    105.95414 
   23200    26507    298.49039   -2401.6693   -2908940.2    23583.532   -2885356.6    253945.43    1.1718734    48.950815    48.950815    105.97918 
   23300    26507    298.90896   -4087.4041   -2908767.1    23616.603   -2885150.5    253983.69    1.1716969    48.948719    48.948719    106.00422 
   23400    26507    300.19256    255.98998   -2908739.4    23718.019   -2885021.4    254039.98    1.1714373    48.948361    48.948361    106.02926 
   23500    26507    300.27856   -1371.2598   -2908810.1    23724.815   -2885085.3    254183.25     1.170777    48.956382    48.956382    106.05431 
   23600    26507     300.0627    768.65149   -2908920.1    23707.759   -2885212.3    254228.25    1.1705697    48.954936    48.954936    106.07935 
   23700    26507    297.62343    508.38783   -2908996.8    23515.034   -2885481.8    254116.95    1.1710825    48.938442    48.938442    106.10439 
   23800    26507    296.98895    256.87635   -2909186.2    23464.904   -2885721.3    254056.22    1.1713624     48.92682     48.92682    106.12943 
   23900    26507     298.2926   -1454.8631     -2909037    23567.905   -2885469.1    253956.16    1.1718239    48.911414    48.911414    106.15448 
   24000    26507    299.89676   -3192.4599   -2908930.1    23694.648   -2885235.4    253798.86    1.1725502    48.890497    48.890497    106.17952 
   24100    26507    299.34547   -434.41453   -2908780.8    23651.092   -2885129.7    253828.51    1.1724132    48.887589    48.887589    106.20456 
   24200    26507    301.04405   -1989.3224   -2908789.7    23785.295   -2885004.5    254086.14    1.1712244    48.906627    48.906627     106.2296 
   24300    26507    303.46772   -3498.5931   -2908871.6    23976.788   -2884894.8    254100.41    1.1711587    48.902237    48.902237    106.25465 
   24400    26507    301.94078   -425.64388   -2908846.5    23856.145   -2884990.4    254038.54    1.1714439    48.890522    48.890522    106.27969 
   24500    26507    299.42976   -1342.1878   -2908946.4    23657.751   -2885288.7    254196.61    1.1707154    48.899969    48.899969    106.30473 
   24600    26507    298.79853     684.2846     -2908955    23607.878   -2885347.1    254414.84    1.1697112    48.915194    48.915194    106.32977 
   24700    26507    300.58452    -398.7597     -2908916    23748.988     -2885167    254595.21    1.1688825    48.926769    48.926769    106.35481 
   24800    26507    301.58907   -2831.2206   -2908841.5    23828.356   -2885013.1    254841.93    1.1677509    48.944708    48.944708    106.37986 
   24900    26507    300.84954    -257.2275   -2908793.3    23769.927   -2885023.4    255014.97    1.1669586     48.95556     48.95556     106.4049 
   25000    26507    297.70192   -1694.0331   -2908791.1    23521.236   -2885269.9    254856.17    1.1676857    48.934558    48.934558    106.42994 
   25100    26507    298.70618    4.4358687   -2909055.2    23600.582   -2885454.6    254713.42    1.1683401    48.915096    48.915096    106.45498 
   25200    26507    298.24123    823.88604   -2908885.7    23563.846   -2885321.8    254719.77    1.1683109    48.909954    48.909954    106.48003 
   25300    26507    301.83587   -1783.7667   -2908933.1    23847.857   -2885085.3    254545.95    1.1691087    48.887515    48.887515    106.50507 
   25400    26507    300.13325   -131.39758   -2908735.2    23713.334   -2885021.9    254518.26    1.1692359    48.879109    48.879109    106.53011 
   25500    26507    299.48007   -915.39346     -2908685    23661.726   -2885023.2    254605.59    1.1688349     48.88175     48.88175    106.55515 
   25600    26507    298.89711    28.499329   -2908848.8    23615.666   -2885233.2    254881.69    1.1675688      48.9025      48.9025     106.5802 
   25700    26507    298.31636   -666.13903   -2908986.1    23569.782   -2885416.4    255064.82    1.1667305    48.914319    48.914319    106.60524 
   25800    26507    296.80043   -1533.0528     -2908785    23450.009     -2885335    255011.56    1.1669741    48.903468    48.903468    106.63028 
   25900    26507    298.76526   -3147.4562   -2908785.6    23605.249   -2885180.3    254762.84    1.1681134    48.873875    48.873875    106.65532 
   26000    26507    298.28943   -1476.1865   -2908623.5    23567.654   -2885055.8    254764.54    1.1681057    48.868301    48.868301    106.68036 
   26100    26507    300.36378     -2122.28   -2908647.5    23731.548   -2884915.9    254788.24     1.167997     48.86484     48.86484    106.70541 
   26200    26507    302.77825   -1752.6047     -2908787    23922.313   -2884864.6    255002.21    1.1670169    48.879618    48.879618    106.73045 
   26300    26507     301.9819    951.99839   -2909015.6    23859.394   -2885156.2     255000.4    1.1670252    48.873711    48.873711    106.75549 
   26400    26507    300.50017    1319.4031   -2909052.8    23742.324   -2885310.5    255178.93    1.1662087    48.885084    48.885084    106.78053 
   26500    26507    297.99308   -1268.5141   -2908840.7     23544.24   -2885296.4    255241.47     1.165923    48.885341    48.885341    106.80558 
   26600    26507    302.52294   -3157.0058   -2908944.8    23902.142   -2885042.6    255325.17    1.1655408    48.887625    48.887625    106.83062 
   26700    26507     299.7711    182.71584     -2908609     23684.72   -2884924.3    255410.21    1.1651527    48.890036    48.890036    106.85566 
   26800    26507    300.10869   -236.43609   -2908652.3    23711.393   -2884940.9    255438.91    1.1650218    48.887055    48.887055     106.8807 
   26900    26507    300.80248   -802.77513   -2908776.9    23766.209   -2885010.7    255354.68    1.1654061    48.873269    48.873269    106.90575 
   27000    26507    298.89297    430.14682   -2908877.5    23615.339   -2885262.2    255170.91    1.1662454    48.849958    48.849958    106.93079 
   27100    26507    296.60831   -1223.2419   -2908888.9     23434.83   -2885454.1    255124.98    1.1664553    48.839843    48.839843    106.95583 
   27200    26507     299.2092    279.66151   -2908895.7    23640.325   -2885255.4    255367.69    1.1653467     48.85735     48.85735    106.98087 
   27300    26507    299.76291   -1090.0953   -2908757.3    23684.073   -2885073.2    255453.41    1.1649557    48.859831    48.859831    107.00592 
   27400    26507    301.15803   -840.15898   -2908826.5    23794.301   -2885032.2    255430.28    1.1650612    48.851902    48.851902    107.03096 
   27500    26507    300.23303   -682.59175   -2908734.7    23721.217   -2885013.5    255444.87    1.1649946    48.847584    48.847584      107.056 
   27600    26507    300.83252    451.40451     -2908736    23768.583   -2884967.5    255532.85    1.1645935    48.850282    48.850282    107.08104 
   27700    26507    299.74848    117.47576   -2908571.5    23682.933   -2884888.6     255519.1    1.1646562    48.843256    48.843256    107.10608 
   27800    26507    303.36282   -1357.8312   -2908848.7      23968.5   -2884880.2    255591.65    1.1643256     48.84448     48.84448    107.13113 
   27900    26507    299.51605   -2799.7339   -2908786.3    23664.568   -2885121.7    255548.79    1.1645208    48.834678    48.834678    107.15617 
   28000    26507    299.68829       2089.3   -2908917.8    23678.177   -2885239.6    255327.48    1.1655302    48.807824    48.807824    107.18121 
   28100    26507    298.58218   -98.403106   -2908776.3    23590.784   -2885185.6    255216.83    1.1660355    48.791548    48.791548    107.20625 
   28200    26507    301.39182    2603.2856   -2908757.9    23812.772   -2884945.1    255034.36    1.1668698    48.768407    48.768407     107.2313 
   28300    26507    300.64992    515.83621   -2908658.7    23754.155   -2884904.5    254969.77    1.1671654    48.756538    48.756538    107.25634 
   28400    26507    298.94851   -4311.1469   -2908627.5    23619.728   -2885007.8    255121.45    1.1664715    48.765346    48.765346    107.28138 
   28500    26507    298.54933    1260.9784     -2908779    23588.189   -2885190.8    255258.53     1.165845    48.772754    48.772754    107.30642 
   28600    26507    298.41858   -1398.2351   -2908844.4    23577.858   -2885266.5    255438.29    1.1650246    48.784231    48.784231    107.33147 
   28700    26507    301.11352    42.094413   -2908852.5    23790.784   -2885061.7    255773.66    1.1634971    48.810552    48.810552    107.35651 
   28800    26507    301.92515    2010.6141   -2908772.1     23854.91   -2884917.2    255749.47    1.1636071    48.802553    48.802553    107.38155 
   28900    26507    302.57362    1497.9624   -2908896.1    23906.146     -2884990    255803.33    1.1633621    48.802001    48.802001    107.40659 
   29000    26507    299.00872    -1427.017   -2908658.7    23624.485   -2885034.2     255887.8    1.1629781    48.804368    48.804368    107.43163 
   29100    26507    300.95878   -529.00288   -2908822.4    23778.558   -2885043.9    255755.88    1.1635779    48.786101    48.786101    107.45668 
   29200    26507     298.1551   -1738.8288   -2908692.3    23557.041   -2885135.3    255414.97     1.165131    48.747895    48.747895    107.48172 
   29300    26507    298.60555   -8.1655718   -2908840.5    23592.631   -2885247.9    255292.54    1.1656898    48.730534    48.730534    107.50676 
   29400    26507    298.03596   -1694.9473   -2908808.4    23547.628   -2885260.8    255402.77    1.1651866    48.735378    48.735378     107.5318 
   29500    26507     301.6608   -1892.0442   -2908899.6    23834.024   -2885065.6    255511.01     1.164693    48.740029    48.740029    107.55685 
   29600    26507    299.68539    444.96249     -2908604    23677.948   -2884926.1    255565.67     1.164444    48.739568    48.739568    107.58189 
   29700    26507    300.63817   -420.02672   -2908696.2    23753.227   -2884942.9    255619.47    1.1641989    48.739026    48.739026    107.60693 
   29800    26507    299.07082   -3209.5816   -2908924.8    23629.391   -2885295.4    255477.83    1.1648443    48.719851    48.719851    107.63197 
   29900    26507    300.61277   -2701.4809   -2909085.2     23751.22     -2885334    255271.34    1.1657866    48.694494    48.694494    107.65702 
   30000    26507     299.6144   -1355.2506   -2908905.9     23672.34   -2885233.5    255348.88    1.1654325    48.696226    48.696226    107.68206 
   30100    26507    301.94485   -244.31147   -2908855.1    23856.467   -2884998.6    255294.35    1.1656815    48.685365    48.685365     107.7071 
   30200    26507    300.29277   -3101.9728   -2908644.7    23725.937   -2884918.7    255259.83    1.1658391    48.676415    48.676415    107.73214 
   30300    26507    299.61906     651.6852   -2908674.3    23672.708   -2885001.6     255195.4    1.1661335    48.664616    48.664616    107.75719 
   30400    26507    296.58376   -1058.8646   -2908812.3     23432.89   -2885379.4    255325.04    1.1655414     48.67132     48.67132    107.78223 
   30500    26507    298.78717    206.27972   -2909021.2     23606.98   -2885414.2     255591.3    1.1643272    48.691035    48.691035    107.80727 
   30600    26507    298.68528   -2470.1497   -2908762.3     23598.93   -2885163.4    255935.68    1.1627605    48.718169    48.718169    107.83231 
   30700    26507     300.6406    -1671.799   -2908741.4    23753.419     -2884988    255882.41    1.1630026    48.707443    48.707443    107.85735 
   30800    26507     300.7746   -197.60287   -2908754.1    23764.006   -2884990.1       255870     1.163059    48.700609    48.700609     107.8824 
   30900    26507    300.78743   -2959.2424   -2908932.4     23765.02   -2885167.3    255876.75    1.1630283      48.6956      48.6956    107.90744 
   31000    26507    299.42587   -3177.8512   -2908955.9    23657.444   -2885298.4    255927.64     1.162797    48.694792    48.694792    107.93248 
   31100    26507    299.31056   -567.40457   -2908804.7    23648.333   -2885156.3    255914.79    1.1628554    48.687921    48.687921    107.95752 
   31200    26507    301.63528   -1669.8208   -2908682.9    23832.007   -2884850.9    256077.09    1.1621184    48.697711    48.697711    107.98257 
   31300    26507     299.2835    762.49216   -2908501.2    23646.195     -2884855    255895.79    1.1629417    48.674825    48.674825    108.00761 
   31400    26507    299.45786    445.08648   -2908667.3    23659.971   -2885007.4    255766.86     1.163528     48.65692     48.65692    108.03265 
   31500    26507    299.54212    -1908.159   -2908842.6    23666.629     -2885176    255822.22    1.1632762    48.656547    48.656547    108.05769 
   31600    26507    301.25369    1305.3824   -2908964.1    23801.859   -2885162.2    256153.49    1.1617718      48.6824      48.6824    108.08274 
   31700    26507    301.20052    265.22897   -2908785.8    23797.657   -2884988.2    256555.39    1.1599518    48.714932    48.714932    108.10778 
   31800    26507     301.5124    2118.6933     -2908578    23822.299   -2884755.7    256676.73    1.1594035    48.720808    48.720808    108.13282 
   31900    26507    299.86899   -628.71671   -2908536.8    23692.454   -2884844.4    256555.86    1.1599497    48.703696    48.703696    108.15786 
   32000    26507    300.71866     1391.069   -2908809.6    23759.586     -2885050    256313.18     1.161048    48.675021    48.675021    108.18291 
   32100    26507    300.84456   -1019.8395   -2908940.4    23769.533   -2885170.9    256529.25      1.16007    48.689899    48.689899    108.20795 
   32200    26507    300.92291    1299.9808   -2908992.9    23775.724   -2885217.2    256495.62    1.1602222    48.681073    48.681073    108.23299 
   32300    26507    299.51607   -2948.7283   -2908889.2     23664.57   -2885224.6    256569.87    1.1598864    48.682488    48.682488    108.25803 
   32400    26507    299.95513   -118.69342   -2908853.7     23699.26   -2885154.4    256562.25    1.1599208    48.676136    48.676136    108.28307 
   32500    26507    300.63974     -3379.47   -2908787.2    23753.351   -2885033.8    256575.58    1.1598606    48.671772    48.671772    108.30812 
   32600    26507    304.22524    -568.2091   -2908972.3    24036.639   -2884935.7    256446.78    1.1604431    48.653929    48.653929    108.33316 
   32700    26507    298.81603   -741.06128   -2908844.5     23609.26   -2885235.3    256251.66    1.1613267    48.629797    48.629797     108.3582 
   32800    26507    298.48317   -1347.9333   -2908939.4    23582.962   -2885356.5    255880.84    1.1630097    48.588983    48.588983    108.38324 
   32900    26507    299.07927   -1229.2084   -2908786.6    23630.059   -2885156.5     255670.1    1.1639683     48.56336     48.56336    108.40829 
   33000    26507    300.92435    -357.4502   -2908820.4    23775.837   -2885044.5    255801.74    1.1633693    48.570252    48.570252    108.43333 
   33100    26507    299.95695   -1588.5281   -2908801.9    23699.404   -2885102.5    255748.86    1.1636099    48.559624    48.559624    108.45837 
   33200    26507    296.34621   -4011.7687   -2908739.7    23414.122   -2885325.6    255894.16    1.1629492    48.567809    48.567809    108.48341 
   33300    26507    298.64981   -670.76078   -2909011.2    23596.127   -2885415.1    255949.97    1.1626956      48.5675      48.5675    108.50846 
   33400    26507    300.01431   -1871.7596   -2908766.3    23703.936   -2885062.4    256025.61    1.1623521    48.569072    48.569072     108.5335 
   33500    26507    300.13617     1106.265   -2908572.7    23713.564   -2884859.1    255919.17    1.1628355    48.553374    48.553374    108.55854 
   33600    26507    300.52536   -1157.2553   -2908639.5    23744.314   -2884895.2    256033.69    1.1623154    48.558635    48.558635    108.58358 
   33700    26507    298.56111   -657.54787   -2908659.1     23589.12     -2885070    256261.25    1.1612832    48.574609    48.574609    108.60862 
   33800    26507    296.96765   -189.49078   -2908663.8    23463.221   -2885200.5    256368.51    1.1607974    48.579173    48.579173    108.63367 
   33900    26507    299.94348   -1220.9341   -2908734.1     23698.34   -2885035.7    256497.03    1.1602157    48.585749    48.585749    108.65871 
   34000    26507    302.76549   -33.619265   -2908721.6    23921.305   -2884800.3    256393.44    1.1606845     48.57034     48.57034    108.68375 
   34100    26507     300.2602   -477.50601   -2908683.6    23723.364   -2884960.2    256224.78    1.1614486    48.548769    48.548769    108.70879 
   34200    26507    299.48857   -1406.5243   -2908920.3    23662.398   -2885257.9    256066.06    1.1621685    48.528141    48.528141    108.73384 
   34300    26507    298.55064   -1181.1452   -2908716.3    23588.293     -2885128    255877.18    1.1630263    48.504654    48.504654    108.75888 
   34400    26507    300.17569     1853.712   -2908637.7    23716.686     -2884921    255913.84    1.1628597    48.502546    48.502546    108.78392 
   34500    26507    303.62692    458.99506   -2908804.4    23989.366   -2884815.1    256171.57    1.1616898    48.521378    48.521378    108.80896 
   34600    26507    299.87739   -4353.2027   -2908644.4    23693.118   -2884951.3    256336.78    1.1609411    48.531438    48.531438    108.83401 
   34700    26507    298.52204   -1749.5684   -2908776.9    23586.033   -2885190.9    256481.88    1.1602843    48.539587    48.539587    108.85905 
   34800    26507    298.48722    648.94008   -2908781.6    23583.282   -2885198.3     256186.7    1.1616212    48.506069    48.506069    108.88409 
   34900    26507    298.59908    1887.0292   -2908732.8     23592.12   -2885140.6    255885.27    1.1629896     48.47195     48.47195    108.90913 
   35000    26507    300.79798   -326.78478   -2908779.3    23765.853   -2885013.5    255735.52    1.1636706    48.452194    48.452194    108.93418 
   35100    26507    298.81386   -1986.6251   -2908573.3    23609.089   -2884964.2    255876.76    1.1630282    48.460003    48.460003    108.95922 
   35200    26507    299.88024    -2134.091   -2908644.9    23693.343   -2884951.5    256175.38    1.1616725    48.482701    48.482701    108.98426 
   35300    26507    299.98499    448.11309   -2908717.2     23701.62   -2885015.6    256069.51    1.1621528    48.467114    48.467114     109.0093 
   35400    26507    298.89132   -1314.0458   -2908787.1     23615.21   -2885171.9    256053.88    1.1622237    48.460069    48.460069    109.03434 
   35500    26507     296.7372    -478.4148   -2908852.5    23445.014   -2885407.5    256353.29    1.1608663    48.482825    48.482825    109.05939 
   35600    26507     296.8344   -2683.5497   -2908810.7    23452.693     -2885358    256575.07    1.1598629    48.498225    48.498225    109.08443 
   35700    26507    300.45983    1936.3123   -2908764.4    23739.137   -2885025.3    256621.67    1.1596523    48.497063    48.497063    109.10947 
   35800    26507     302.3308   -1323.0243   -2908818.4     23886.96   -2884931.4    256774.83    1.1589606    48.505967    48.505967    109.13451 
   35900    26507    300.51042   -1036.1225   -2908702.5    23743.134   -2884959.4    256840.45    1.1586644    48.506599    48.506599    109.15956 
   36000    26507    301.17966   -2330.1263     -2908906    23796.009     -2885110    256887.45    1.1584524    48.505474    48.505474     109.1846 
   36100    26507    298.00602   -985.16322   -2908764.4    23545.262   -2885219.1    256696.87    1.1593125    48.481918    48.481918    109.20964 
   36200    26507    299.03256   -2198.4733   -2908613.6    23626.368   -2884987.2    256719.35     1.159211    48.478484    48.478484    109.23468 
   36300    26507    300.65512   -1007.5777   -2908528.3    23754.566   -2884773.7    256888.81    1.1584463    48.488924    48.488924    109.25973 
   36400    26507    302.68742    19.328205   -2908710.8    23915.137   -2884795.7    256925.71      1.15828    48.486849    48.486849    109.28477 
   36500    26507     300.1776    -1110.075   -2908757.4    23716.838   -2885040.6    256820.47    1.1587546    48.471364    48.471364    109.30981 
   36600    26507    299.64137    75.610094   -2908814.4     23674.47   -2885139.9    256780.08    1.1589369    48.462002    48.462002    109.33485 
   36700    26507    298.53715   -2205.2453     -2908728    23587.226   -2885140.7    256898.66    1.1584019     48.46764     48.46764     109.3599 
   36800    26507     298.1219   -875.23338   -2908635.4    23554.418     -2885081    256942.98    1.1582021    48.466272    48.466272    109.38494 
   36900    26507    299.77097    893.01303   -2908506.3     23684.71   -2884821.6    256922.78    1.1582931    48.458821    48.458821    109.40998 
   37000    26507    303.16116    2184.9442   -2908593.9    23952.567   -2884641.4    256908.94    1.1583555    48.451971    48.451971    109.43502 
   37100    26507    300.74372   -120.76245   -2908590.3    23761.566   -2884828.7    256665.41    1.1594546     48.42346     48.42346    109.46006 
   37200    26507    300.50284   -2444.0996   -2908730.6    23742.534     -2884988    256357.17    1.1608488     48.38884     48.38884    109.48511 
   37300    26507    299.68897   -1528.1033   -2908769.2    23678.231     -2885091     256096.3    1.1620312    48.358683    48.358683    109.51015 
   37400    26507     297.6468     -189.151   -2908584.9    23516.881   -2885068.1     256172.8    1.1616842    48.360376    48.360376    109.53519 
   37500    26507    302.45905    -1794.643   -2908726.5    23897.093   -2884829.4    256467.38    1.1603499    48.382643    48.382643    109.56023 
   37600    26507    301.61041   -1398.8939   -2908578.8    23830.043   -2884748.7     256613.3    1.1596901    48.390875    48.390875    109.58528 
   37700    26507    300.72834    -1253.135   -2908746.7    23760.351   -2884986.3    256502.68    1.1601902    48.374917    48.374917    109.61032 
   37800    26507    299.39487    1748.8309   -2908823.7    23654.995   -2885168.7    256228.93    1.1614297    48.343574    48.343574    109.63536 
   37900    26507    300.04158   -1796.6586   -2908835.4    23706.091   -2885129.3    256305.43    1.1610831    48.345269    48.345269     109.6604 
   38000    26507    301.37877    150.07057   -2908761.2    23811.741   -2884949.5    256546.86    1.1599904    48.362512    48.362512    109.68545 
   38100    26507    301.44835   -1840.0059   -2908577.5    23817.238   -2884760.3    256750.95    1.1590683    48.376223    48.376223    109.71049 
   38200    26507    300.86208    55.449433     -2908603    23770.918   -2884832.1    256746.68    1.1590876      48.3703      48.3703    109.73553 
   38300    26507    298.36656   -3302.5776   -2908781.2    23573.748   -2885207.4    257050.64     1.157717    48.393403    48.393403    109.76057 
   38400    26507    299.47365    -2880.818   -2908789.3    23661.219   -2885128.1    257397.99    1.1561547    48.420565    48.420565    109.78561 
   38500    26507    300.10226   -1935.9618   -2908682.9    23710.885     -2884972    257560.45    1.1554254    48.430321    48.430321    109.81066 
   38600    26507    300.67355   -1080.3756   -2908592.3    23756.022   -2884836.3    257423.12    1.1560418    48.411887    48.411887     109.8357 
   38700    26507    300.01792   -26.932711   -2908604.5    23704.221   -2884900.2    257262.18    1.1567651    48.391235    48.391235    109.86074 
   38800    26507    298.83328   -662.79676   -2908832.9    23610.623   -2885222.3    257113.23    1.1574352    48.371712    48.371712    109.88578 
   38900    26507    300.19316   -90.196157     -2908915    23718.067   -2885196.9    257051.82    1.1577117    48.360424    48.360424    109.91083 
   39000    26507    300.73377   -1038.0476   -2908852.9     23760.78   -2885092.1    257124.58    1.1573841    48.361759    48.361759    109.93587 
   39100    26507    300.77229   -1828.0108   -2908631.1    23763.823   -2884867.2    256894.78    1.1584194    48.334638    48.334638    109.96091 
   39200    26507    302.76939    425.70022   -2908634.3    23921.613   -2884712.7    256721.63    1.1592007    48.312845    48.312845    109.98595 
   39300    26507    301.81848   -782.10012   -2908664.6    23846.482   -2884818.1    256734.75    1.1591415    48.308581    48.308581      110.011 
   39400    26507    301.82804   -58.870778   -2908760.6    23847.238   -2884913.4     256925.3    1.1582818    48.321005    48.321005    110.03604 
   39500    26507    300.22268    1542.6278   -2908712.8    23720.399   -2884992.4    257146.76    1.1572843    48.336326    48.336326    110.06108 
   39600    26507    299.74599   -370.74693   -2908704.8    23682.736   -2885022.1    257317.26    1.1565174    48.346849    48.346849    110.08612 
   39700    26507    300.31535    -866.6533   -2908654.7    23727.721     -2884927    257616.83    1.1551726    48.369482    48.369482    110.11117 
   39800    26507    301.53947   -385.71991   -2908664.2    23824.438   -2884839.8     257801.8    1.1543437    48.381343    48.381343    110.13621 
   39900    26507     301.3165    79.593042   -2908758.1    23806.821   -2884951.3    257870.86    1.1540346    48.382322    48.382322    110.16125 
   40000    26507    299.89648    414.01718   -2908814.8    23694.627   -2885120.2    257885.12    1.1539708    48.378161    48.378161    110.18629 
   40100    26507     301.2789    716.72751   -2908937.7    23803.851   -2885133.8    257992.87    1.1534888    48.382769    48.382769    110.21133 
   40200    26507     299.6917    257.18835   -2908702.2    23678.447   -2885023.8    257927.42    1.1537815    48.371137    48.371137    110.23638 
   40300    26507    300.43346    340.99477   -2908527.4    23737.053   -2884790.3    257889.78    1.1539499    48.362114    48.362114    110.26142 
   40400    26507    301.62186   -2109.2782   -2908484.3    23830.947   -2884653.4    257995.91    1.1534752    48.366572    48.366572    110.28646 
   40500    26507    301.24198     75.45399   -2908586.1    23800.934   -2884785.2    258069.69    1.1531455    48.367997    48.367997     110.3115 
   40600    26507    297.83678   -1244.8938   -2908556.1     23531.89   -2885024.2    257845.82    1.1541467    48.341526    48.341526    110.33655 
   40700    26507    299.71363   -700.44082     -2908722    23680.179   -2885041.8    257643.17    1.1550545    48.317042    48.317042    110.36159 
   40800    26507    299.81719    2005.0646   -2908647.1    23688.362   -2884958.7    257361.16    1.1563201    48.285115    48.285115    110.38663 
   40900    26507     301.6913    1907.3379   -2908732.6    23836.434   -2884896.2    257413.01    1.1560873    48.284501    48.284501    110.41167 
   41000    26507    300.87572    864.28783   -2908661.9    23771.995   -2884889.9    257517.88    1.1556164     48.28886     48.28886    110.43672 
   41100    26507    298.22143   -791.98617   -2908509.3    23562.282     -2884947    257490.54    1.1557391    48.280823    48.280823    110.46176 
   41200    26507    299.05419   -1230.4849   -2908609.1    23628.078     -2884981    257629.83    1.1551143    48.288406    48.288406     110.4868 
   41300    26507    300.11488    2066.8691   -2908763.3    23711.882   -2885051.4    257558.31     1.155435    48.276233    48.276233    110.51184 
   41400    26507    300.53015    -906.6184   -2908773.2    23744.692   -2885028.6    257634.36     1.155094     48.27789     48.27789    110.53689 
   41500    26507    302.25711   -1430.2313   -2908701.3    23881.138   -2884820.2    257899.72    1.1539055    48.297276    48.297276    110.56193 
   41600    26507    301.10241   -3151.7852   -2908504.2    23789.906   -2884714.3    258249.74    1.1523415    48.324566    48.324566    110.58697 
   41700    26507    300.44502   -770.86892     -2908632    23737.966     -2884894    258204.99    1.1525412     48.31491     48.31491    110.61201 
   41800    26507    299.29528   -47.288996     -2908761    23647.126   -2885113.9    258154.96    1.1527646    48.304761    48.304761    110.63705 
   41900    26507    298.63543   -538.20284   -2908661.6    23594.992   -2885066.6    258088.97    1.1530593    48.293121    48.293121     110.6621 
   42000    26507    300.80156   -737.28446   -2908714.7    23766.136   -2884948.6    257676.87    1.1549034    48.249091    48.249091    110.68714 
   42100    26507    300.37578   -2232.4514   -2908627.7    23732.495   -2884895.2    257301.77    1.1565871    48.208507    48.208507    110.71218 
   42200    26507    298.62177    1074.5628   -2908429.8    23593.912   -2884835.9    256952.32      1.15816    48.170312    48.170312    110.73722 
   42300    26507    301.02521   -1382.7478   -2908523.2    23783.807   -2884739.4     256945.8    1.1581894    48.164254    48.164254    110.76227 
   42400    26507     298.5476      234.925   -2908436.8    23588.052   -2884848.8    257090.45    1.1575377    48.172365    48.172365    110.78731 
   42500    26507    299.18471   -3755.0702   -2908764.3     23638.39   -2885125.9    256953.18    1.1581561    48.154061    48.154061    110.81235 
   42600    26507    296.97161   -1907.9006   -2908666.8    23463.534   -2885203.3    256805.94    1.1588201    48.134824    48.134824    110.83739 
   42700    26507    299.31229   -2994.0126     -2908627     23648.47   -2884978.5    256647.03    1.1595377    48.114493    48.114493    110.86244 
   42800    26507    302.40338   -2326.1353     -2908748    23892.695   -2884855.3     256713.8    1.1592361    48.115318    48.115318    110.88748 
   42900    26507    298.40773    1083.7803     -2908504    23577.001     -2884927    257135.43    1.1573352    48.149377    48.149377    110.91252 
   43000    26507    299.12118   -300.73068   -2908586.6    23633.371   -2884953.3     257573.1    1.1553687    48.184898    48.184898    110.93756 
   43100    26507    300.12775   -3249.8939   -2908738.8    23712.899   -2885025.9    257950.61    1.1536778    48.214754    48.214754     110.9626 
   43200    26507     297.0423   -572.46228   -2908695.4    23469.119   -2885226.2    258047.86     1.153243    48.218401    48.218401    110.98765 
   43300    26507    298.70861   -465.62761   -2908689.8    23600.773     -2885089    258250.62    1.1523376      48.2319      48.2319    111.01269 
   43400    26507    301.73449    509.20947   -2908695.5    23839.847   -2884855.6    258322.86    1.1520154    48.233206    48.233206    111.03773 
   43500    26507    300.67489   -1542.7573     -2908592    23756.128   -2884835.9    258236.63       1.1524    48.219718    48.219718    111.06277 
   43600    26507    299.47793   -806.65098   -2908600.9    23661.557   -2884939.3    258161.11    1.1527371    48.207232    48.207232    111.08782 
   43700    26507    298.13671   -1465.6835   -2908706.8    23555.588   -2885151.2    257986.19    1.1535187    48.185467    48.185467    111.11286 
   43800    26507    294.55414   -1589.3891   -2908659.6    23272.532     -2885387    257690.44    1.1548426    48.152413    48.152413     111.1379 
   43900    26507     296.3114   -2432.1796   -2908577.3    23411.371   -2885165.9     257628.9    1.1551184     48.14124     48.14124    111.16294 
   44000    26507    299.79891   -3535.4504   -2908656.7    23686.918   -2884969.8    257499.25    1.1557001    48.123705    48.123705    111.18799 
   44100    26507    300.34275   -1966.8827   -2908624.1    23729.885   -2884894.2    257332.33    1.1564497    48.102688    48.102688    111.21303 
   44200    26507    301.06706   -48.071936     -2908636    23787.113   -2884848.8    257083.38    1.1575696    48.074002    48.074002    111.23807 
   44300    26507    301.13268   -3131.2036   -2908694.1    23792.298   -2884901.8    256899.42    1.1583985     48.05139     48.05139    111.26311 
   44400    26507    300.66625   -3073.0225   -2908874.7    23755.445   -2885119.3     256983.1    1.1580213    48.053808    48.053808    111.28816 
   44500    26507     299.8282   -1172.7158   -2908978.4    23689.231   -2885289.2    257070.36    1.1576282    48.056559    48.056559     111.3132 
   44600    26507    297.76461   -2141.3897     -2908759    23526.189   -2885232.8    256952.24    1.1581604    48.040114    48.040114    111.33824 
   44700    26507    298.88377   -3274.7182   -2908598.5    23614.613   -2884983.9    256874.92    1.1585089    48.027485    48.027485    111.36328 
   44800    26507    300.22296   -1109.2704   -2908637.7    23720.421   -2884917.3    257070.08    1.1576295    48.040324    48.040324    111.38832 
   44900    26507    299.34691    -1256.287   -2908642.3    23651.205   -2884991.1    257335.82     1.156434    48.059746    48.059746    111.41337 
   45000    26507    299.79515   -841.07645   -2908732.9     23686.62   -2885046.3    257211.17    1.1569944    48.042706    48.042706    111.43841 
   45100    26507    296.83333   -772.36734   -2908689.3    23452.609   -2885236.7    256986.33    1.1580067    48.016309    48.016309    111.46345 
   45200    26507    299.02343   -1334.9095   -2908705.1    23625.647   -2885079.5    256936.61    1.1582308    48.006271    48.006271    111.48849 
   45300    26507      300.364    69.234945   -2908561.3    23731.564   -2884829.7    257018.19    1.1578632      48.0085      48.0085    111.51354 
   45400    26507    298.56742   -2745.3797     -2908391    23589.618   -2884801.3    257246.96    1.1568335    48.024469    48.024469    111.53858 
   45500    26507    299.39699   -1402.1034   -2908497.8    23655.162   -2884842.7    257320.96    1.1565008    48.025985    48.025985    111.56362 
   45600    26507    298.50356   -1592.3185   -2908593.6    23584.572     -2885009    257436.81    1.1559804    48.031405    48.031405    111.58866 
   45700    26507    297.92672    -2845.857   -2908679.6    23538.997   -2885140.6    257670.23    1.1549332    48.047783    48.047783    111.61371 
   45800    26507    300.09903   -845.69672   -2908573.4    23710.629   -2884862.8    257893.63    1.1539327    48.063217    48.063217    111.63875 
   45900    26507    301.14304     1110.885   -2908514.5    23793.116   -2884721.4    257922.85     1.153802    48.060549    48.060549    111.66379 
   46000    26507    300.20935   -346.30129   -2908541.5    23719.346   -2884822.2    257871.18    1.1540332    48.050347    48.050347    111.68883 
   46100    26507    300.20064    439.74684   -2908667.9    23718.658   -2884949.3    257778.25    1.1544492    48.036303    48.036303    111.71387 
   46200    26507    301.71924   -781.69461   -2908804.1    23838.641   -2884965.4    257585.97     1.155311    48.013003    48.013003    111.73892 
   46300    26507    299.57109   -1437.7802   -2908454.8    23668.918   -2884785.8    257360.56    1.1563229    47.986614    47.986614    111.76396 
   46400    26507    301.71148     404.6534   -2908314.2    23838.028   -2884476.1    257187.87    1.1570993    47.965139    47.965139      111.789 
   46500    26507     302.0237   -150.96255   -2908467.4    23862.696   -2884604.7    257338.04     1.156424    47.973766    47.973766    111.81404 
   46600    26507    302.20957     1301.992   -2908718.1    23877.382   -2884840.7    257235.21    1.1568863     47.95881     47.95881    111.83909 
   46700    26507    299.43301    362.93155   -2908655.8    23658.008   -2884997.8    257243.65    1.1568483    47.954229    47.954229    111.86413 
   46800    26507    298.34683   -2616.7481   -2908578.2     23572.19     -2885006    257150.48    1.1572675    47.940178    47.940178    111.88917 
   46900    26507    300.86171    2333.3314   -2908645.2    23770.889   -2884874.3    256885.35    1.1584619    47.910097    47.910097    111.91421 
   47000    26507    300.47157    1407.3996   -2908321.3    23740.064   -2884581.2    256814.91    1.1587797    47.898168    47.898168    111.93926 
   47100    26507    301.46569   -53.543568   -2908379.7    23818.608   -2884561.1    257033.32     1.157795    47.913173    47.913173     111.9643 
   47200    26507    301.24392    -1939.386   -2908582.8    23801.087   -2884781.7    257357.03    1.1563387    47.937974    47.937974    111.98934 
   47300    26507    299.73957   -1425.0665     -2908552    23682.229   -2884869.8    257779.59    1.1544432     47.97195     47.97195    112.01438 
   47400    26507    298.94501   -153.76392   -2908538.4    23619.452   -2884918.9    258198.98    1.1525681    48.005591    48.005591    112.03943 
   47500    26507     300.3071   -1113.9377   -2908725.9    23727.069   -2884998.8    258527.45    1.1511037     48.03075     48.03075    112.06447 
   47600    26507    298.45604   -1938.4055   -2908703.9    23580.818   -2885123.1    258657.95    1.1505229    48.037504    48.037504    112.08951 
   47700    26507    296.07665     977.6323   -2908647.2    23392.824   -2885254.4     258620.9    1.1506877    48.028698    48.028698    112.11455 
   47800    26507    300.39424   -1287.5428   -2908719.8    23733.954   -2884985.9    258632.49    1.1506362    48.024411    48.024411    112.13959 
   47900    26507    299.47892   -1410.5902   -2908466.7    23661.635     -2884805    258451.81    1.1514406    48.002274    48.002274    112.16464 
   48000    26507    300.84047   -305.42662   -2908532.1    23769.211   -2884762.9     258445.8    1.1514673    47.996358    47.996358    112.18968 
   48100    26507    299.13448   -2745.4767   -2908455.3    23634.421   -2884820.9    258286.81    1.1521761    47.976238    47.976238    112.21472 
   48200    26507    298.26171   -1007.8064   -2908640.5    23565.464     -2885075    258099.35     1.153013    47.953475    47.953475    112.23976 
   48300    26507    298.38992   -1792.3704   -2908686.2    23575.594   -2885110.6    258036.06    1.1532958    47.942247    47.942247    112.26481 
   48400    26507    298.07906   -1839.7526   -2908396.2    23551.033   -2884845.2    258040.17    1.1532774    47.937283    47.937283    112.28985 
   48500    26507    301.36892   -2292.5281   -2908580.8    23810.963   -2884769.8    257890.67     1.153946    47.918051    47.918051    112.31489 
   48600    26507    300.62904    -641.5571   -2908671.9    23752.506   -2884919.4    257770.03     1.154486    47.901502    47.901502    112.33993 
   48700    26507    299.61368    1732.4365   -2908720.5    23672.282   -2885048.2    258041.05    1.1532735    47.921336    47.921336    112.36498 
   48800    26507     297.3239    1681.7344   -2908555.2    23491.369   -2885063.8    258175.24     1.152674    47.928455    47.928455    112.39002 
   48900    26507     299.9818    -2480.824   -2908464.1    23701.367   -2884762.7    258145.81    1.1528054    47.920385    47.920385    112.41506 
   49000    26507    299.49354   -998.94704   -2908323.5     23662.79   -2884660.7    258004.32    1.1534376    47.901915    47.901915     112.4401 
   49100    26507    300.21443   -2415.8516   -2908441.4    23719.747   -2884721.7    258056.04    1.1532065    47.901381    47.901381    112.46515 
   49200    26507    299.72819    1693.1233   -2908587.4     23681.33   -2884906.1    257914.91    1.1538375    47.882951    47.882951    112.49019 
   49300    26507    298.73631   -512.17573   -2908638.3    23602.962   -2885035.3    258060.22    1.1531878    47.891107    47.891107    112.51523 
   49400    26507    299.54567    797.79494   -2908624.7    23666.909   -2884957.8    258190.83    1.1526044    47.897895    47.897895    112.54027 
   49500    26507    302.62039   -510.68051   -2908457.2    23909.841   -2884547.4    258242.75    1.1523727    47.897382    47.897382    112.56531 
   49600    26507    301.03048    -1479.171   -2908320.7    23784.223   -2884536.5    258646.27    1.1505748    47.929458    47.929458    112.59036 
   49700    26507    300.27717   -2295.3518   -2908477.5    23724.704   -2884752.8    259361.45    1.1474022    47.990339    47.990339     112.6154 
   49800    26507    299.71513   -996.46029   -2908602.9    23680.298   -2884922.6    259443.09    1.1470411    47.992556    47.992556    112.64044 
   49900    26507    301.83071   -2374.0408   -2908721.4    23847.449     -2884874    259406.99    1.1472008    47.983883    47.983883    112.66548 
   50000    26507    302.62418    2473.7977   -2908620.2     23910.14     -2884710    259216.58    1.1480434     47.96094     47.96094    112.69053 
   50100    26507    302.41453   -1125.7734     -2908446    23893.576   -2884552.5    258866.34    1.1495967    47.923203    47.923203    112.71557 
   50200    26507    299.67985   -2840.2045   -2908333.8    23677.511   -2884656.3    258848.93    1.1496741    47.916269    47.916269    112.74061 
   50300    26507    297.78309   -127.61165   -2908467.9    23527.649   -2884940.3    259183.77    1.1481888    47.941927    47.941927    112.76565 
   50400    26507    298.91825   -91.196336     -2908608    23617.337   -2884990.6    259291.63    1.1477112    47.946577    47.946577     112.7907 
   50500    26507    300.98896    915.82867     -2908690    23780.942     -2884909    259186.95    1.1481747    47.931577    47.931577    112.81574 
   50600    26507    301.73698    42.155555   -2908587.1    23840.043     -2884747    259090.58    1.1486018    47.917348    47.917348    112.84078 
   50700    26507    302.62006   -435.16135   -2908417.5    23909.815   -2884507.6    259043.86    1.1488089    47.907711    47.907711    112.86582 
   50800    26507    301.61608   -1445.9759   -2908389.5    23830.491     -2884559    258972.74    1.1491244    47.895822    47.895822    112.89086 
   50900    26507    298.74099    -1215.388   -2908447.4    23603.332     -2884844    258924.03    1.1493406    47.886006    47.886006    112.91591 
   51000    26507    297.23487   -1071.5914   -2908385.6    23484.334   -2884901.3    258797.66    1.1499018    47.869011    47.869011    112.94095 
   51100    26507    299.37919   -424.32844   -2908440.1    23653.756   -2884786.4    258690.69    1.1503773    47.853812    47.853812    112.96599 
   51200    26507    303.00872    2081.5488   -2908568.5    23940.523     -2884628    258521.21    1.1511315    47.832832    47.832832    112.99103 
   51300    26507     300.7448   -353.90798   -2908452.1    23761.652   -2884690.5    258500.55    1.1512235    47.825621    47.825621    113.01608 
   51400    26507    299.37204    -2384.764   -2908660.3    23653.191   -2885007.1    258731.23     1.150197    47.841656    47.841656    113.04112 
[...]
  578200    26507    300.83427    147.04926   -2909513.3     23768.72   -2885744.6    559741.65   0.53165937    47.801611    47.801611    244.96416 
  578300    26507    300.42237    418.44782   -2909664.7    23736.176   -2885928.6    560001.95   0.53141225    47.810281    47.810281     244.9892 
  578400    26507    298.75215    281.58118   -2909562.4    23604.214   -2885958.2    560200.34   0.53122406    47.816305    47.816305    245.01425 
  578500    26507    300.82657    593.18417     -2909665    23768.112   -2885896.9    560258.25   0.53116915    47.816333    47.816333    245.03929 
  578600    26507    299.99066    -641.8367   -2909567.6    23702.067   -2885865.5    560284.12   0.53114462    47.814994    47.814994    245.06433 
  578700    26507    300.61299   -146.34348   -2909554.3    23751.237     -2885803    560081.13   0.53133712    47.803889    47.803889    245.08937 
  578800    26507    299.92576    590.53821     -2909467     23696.94   -2885770.1    559954.29   0.53145748    47.796034    47.796034    245.11442 
  578900    26507     299.5487     229.4551   -2909184.3    23667.148   -2885517.1    559661.58   0.53173544    47.781099    47.781099    245.13946 
  579000    26507    303.28913   -1493.8082   -2909268.6    23962.677   -2885305.9    560039.97   0.53137618    47.794808    47.794808     245.1645 
  579100    26507    301.46558    927.70027   -2909382.9      23818.6   -2885564.3    560157.69    0.5312645     47.79739     47.79739    245.18954 
  579200    26507    300.76745    343.53846   -2909540.6    23763.441   -2885777.2    559999.92   0.53141418    47.788218    47.788218    245.21459 
  579300    26507    301.03607    337.44974   -2909711.8    23784.664   -2885927.1    559742.85   0.53165824    47.774808    47.774808    245.23963 
  579400    26507    299.13783    -390.2301   -2909657.3    23634.686   -2886022.6    559675.85   0.53172189     47.76951     47.76951    245.26467 
  579500    26507    300.08235   -358.99089   -2909715.9    23709.312   -2886006.5    559788.03   0.53161533    47.771858    47.771858    245.28971 
  579600    26507    298.81027   -357.68608     -2909386    23608.806   -2885777.2    559437.82   0.53194812    47.754475    47.754475    245.31475 
  579700    26507    300.73823   -676.75966   -2909331.2    23761.133     -2885570    558834.21   0.53252269     47.72627     47.72627     245.3398 
  579800    26507    301.62051   -536.19738   -2909462.8     23830.84   -2885631.9    558988.35   0.53237584    47.730416    47.730416    245.36484 
  579900    26507    302.85592    1092.7396   -2909810.7     23928.45   -2885882.3    559330.27    0.5320504    47.742575    47.742575    245.38988 
  580000    26507    300.46661   -28.722621     -2909753    23739.672   -2886013.3    559105.73   0.53226408    47.730555    47.730555    245.41492 
  580100    26507    299.69047    577.30497   -2909674.7     23678.35   -2885996.3    558712.78   0.53263843    47.711345    47.711345    245.43997 
  580200    26507    300.18517     1469.043   -2909531.6    23717.436   -2885814.2    558165.97   0.53316023    47.685559    47.685559    245.46501 
  580300    26507    298.93358    336.27587   -2909232.6    23618.548     -2885614       558276   0.53305515    47.687827    47.687827    245.49005 
  580400    26507    299.95704   -691.85912   -2909352.6    23699.411   -2885653.2    558208.83   0.53311929    47.682526    47.682526    245.51509 
  580500    26507    300.51895    291.31509     -2909501    23743.808   -2885757.2    558392.34   0.53294408    47.687931    47.687931    245.54014 
  580600    26507    301.96197    534.38387   -2909727.5     23857.82   -2885869.7    558403.01    0.5329339    47.685955    47.685955    245.56518 
  580700    26507    299.54718    875.99843   -2909676.9    23667.028   -2886009.9     559062.3   0.53230542    47.711665    47.711665    245.59022 
  580800    26507    298.51647    425.60868   -2909594.8    23585.593   -2886009.2    559520.75   0.53186928     47.72879     47.72879    245.61526 
  580900    26507    301.51607    683.95161   -2909431.6    23822.589     -2885609    560232.76   0.53119331    47.756714    47.756714     245.6403 
  581000    26507    301.02668   -578.76384   -2909323.3    23783.922   -2885539.4    561035.04   0.53043371    47.788461    47.788461    245.66535 
  581100    26507    301.51164    97.328895   -2909537.3    23822.239   -2885715.1    561375.66   0.53011186    47.800529    47.800529    245.69039 
  581200    26507    298.75206   -102.51959   -2909503.1    23604.207   -2885898.9    561787.07   0.52972365    47.815605    47.815605    245.71543 
  581300    26507    300.32727    530.04154   -2909625.9    23728.663   -2885897.2     561275.4   0.53020656     47.79139     47.79139    245.74047 
  581400    26507    298.89681    279.33895   -2909428.5    23615.643   -2885812.9     561420.6   0.53006943    47.795136    47.795136    245.76552 
  581500    26507    303.46481    752.27005   -2909562.9    23976.558   -2885586.4    561556.55    0.5299411    47.798487    47.798487    245.79056 
  581600    26507    300.03851   -819.43917     -2909357    23705.848   -2885651.2    561570.05   0.52992837    47.796627    47.796627     245.8156 
  581700    26507     300.0866   -1254.1653   -2909617.3    23709.648   -2885907.6    561588.59   0.52991086    47.794981    47.794981    245.84064 
  581800    26507    297.93931    48.706903   -2909578.3    23539.992   -2886038.3    561664.98   0.52983879    47.795798    47.795798    245.86569 
  581900    26507    300.35076   -516.54907     -2909788    23730.519   -2886057.5    561415.84   0.53007393    47.782762    47.782762    245.89073 
  582000    26507    299.60339   -463.22675   -2909621.2    23671.469   -2885949.8    561406.67   0.53008258    47.779939    47.779939    245.91577 
  582100    26507    301.40749   -369.96669   -2909524.7     23814.01   -2885710.7    560742.08   0.53071083    47.749219    47.749219    245.94081 
  582200    26507    301.83885   -351.06677   -2909489.6    23848.092   -2885641.6    560270.74   0.53115731    47.726717    47.726717    245.96586 
  582300    26507    300.43171   -201.64014   -2909452.8    23736.914   -2885715.9    560326.32   0.53110462    47.726655    47.726655     245.9909 
  582400    26507     301.1038   -329.19165     -2909601    23790.016     -2885811    560402.93   0.53103202    47.727488    47.727488    246.01594 
  582500    26507    297.47253   -425.36441   -2909502.6    23503.111   -2885999.5    561070.49    0.5304002    47.753476    47.753476    246.04098 
  582600    26507    299.39908   -791.84633   -2909727.2    23655.327   -2886071.8    561071.95   0.53039881    47.751108    47.751108    246.06602 
  582700    26507    299.80443    1259.0775   -2909584.2    23687.354   -2885896.8    560939.07   0.53052446    47.743024    47.743024    246.09107 
  582800    26507    302.21033    310.16882   -2909517.2    23877.442   -2885639.8    560331.45   0.53109976    47.714731    47.714731    246.11611 
  582900    26507     299.6976   -518.05412   -2909407.9    23678.913     -2885729    560166.66   0.53125599    47.705287    47.705287    246.14115 
  583000    26507    300.09975    622.03837   -2909628.8    23710.686   -2885918.2    560149.34   0.53127242    47.702123    47.702123    246.16619 
  583100    26507    298.95215    396.18334   -2909687.6    23620.015   -2886067.6    560658.06   0.53079037    47.721352    47.721352    246.19124 
  583200    26507    299.21016    192.62355   -2909703.5    23640.401   -2886063.1    560937.73   0.53052573    47.730825    47.730825    246.21628 
  583300    26507    300.13709   -251.81319   -2909696.7    23713.637   -2885983.1    560636.76   0.53081053    47.715592    47.715592    246.24132 
  583400    26507    298.64793   -205.62369   -2909510.8    23595.979   -2885914.8    560700.49    0.5307502    47.715878    47.715878    246.26636 
  583500    26507    299.28138   -274.22668     -2909484    23646.028     -2885838    561069.33   0.53040129    47.729143    47.729143    246.29141 
  583600    26507    298.35754    303.97787   -2909322.8    23573.036   -2885749.7    561101.51   0.53037087    47.728085    47.728085    246.31645 
  583700    26507    300.50118   -431.82501     -2909397    23742.403   -2885654.6    560928.21   0.53053473    47.718289    47.718289    246.34149 
  583800    26507    298.10543    279.59372   -2909370.2    23553.116     -2885817     560264.9   0.53116284    47.687643    47.687643    246.36653 
  583900    26507    298.46254    333.32888     -2909601    23581.331   -2886019.7    560217.37   0.53120791    47.683196    47.683196    246.39157 
  584000    26507    299.79358    254.10799   -2909721.2    23686.496   -2886034.7    560430.56   0.53100583    47.689845    47.689845    246.41662 
  584100    26507    300.27077   -557.62473   -2909543.2    23724.199     -2885819    560792.84   0.53066279    47.702833    47.702833    246.44166 
  584200    26507    303.04708     86.80251   -2909535.6    23943.553     -2885592    561330.48   0.53015453    47.723269    47.723269     246.4667 
  584300    26507    301.93734   -783.65122   -2909575.4    23855.873   -2885719.5    561783.24   0.52972726    47.740086    47.740086    246.49174 
  584400    26507    300.30637   -435.17904   -2909571.2    23727.011   -2885844.2    562173.89   0.52935916    47.754256    47.754256    246.51679 
  584500    26507    301.34694   -182.97774   -2909719.1    23809.226   -2885909.9    562413.13   0.52913398    47.761991    47.761991    246.54183 
  584600    26507    300.86557   -230.13195   -2909795.3    23771.193   -2886024.1     562500.1   0.52905217    47.763257    47.763257    246.56687 
  584700    26507    297.65488    17.690541   -2909618.8    23517.519   -2886101.3    562474.23    0.5290765    47.759734    47.759734    246.59191 
  584800    26507    301.48068    143.14677     -2909670    23819.793   -2885850.2    562217.87   0.52931775    47.746425    47.746425    246.61696 
  584900    26507    301.50125   -176.07801   -2909514.7    23821.418   -2885693.3    561680.37   0.52982427    47.721173    47.721173      246.642 
  585000    26507    301.45589     825.3225   -2909612.3    23817.834   -2885794.4    561505.59   0.52998919    47.711325    47.711325    246.66704 
  585100    26507    298.60924    561.80082   -2909575.3    23592.922   -2885982.4    561266.28   0.53021517    47.698736    47.698736    246.69208 
  585200    26507    301.66122   -440.75181   -2909794.3    23834.057   -2885960.3    561343.94   0.53014182    47.699615    47.699615    246.71713 
  585300    26507    302.16223   -520.56189   -2909737.4    23873.642   -2885863.7    561447.58   0.53004396    47.701597    47.701597    246.74217 
  585400    26507    300.42224    372.55029   -2909586.2    23736.166     -2885850    561742.46   0.52976571    47.711701    47.711701    246.76721 
  585500    26507    299.27951    446.83326   -2909562.4     23645.88   -2885916.5    561842.65   0.52967125    47.713535    47.713535    246.79225 
  585600    26507    299.71045   -1248.6711   -2909895.3    23679.928   -2886215.4     562013.2   0.52951051    47.718355    47.718355    246.81729 
  585700    26507    299.26879   -10.527773   -2910009.5    23645.033   -2886364.5    562277.19   0.52926191     47.72714     47.72714    246.84234 
  585800    26507    297.96592   -427.78011   -2909750.2    23542.094   -2886208.1    563056.05   0.52852979    47.757761    47.757761    246.86738 
  585900    26507    303.03074   -265.38808   -2909888.5    23942.262   -2885946.2    563504.03   0.52810961    47.774333    47.774333    246.89242 
  586000    26507    299.92943   -613.07344   -2909576.1    23697.229   -2885878.9    563443.99   0.52816589    47.769365    47.769365    246.91746 
  586100    26507    300.61072    662.11015   -2909546.4    23751.058   -2885795.4    563877.31   0.52776001    47.785308    47.785308    246.94251 
  586200    26507    300.88415    877.76464   -2909418.4    23772.661   -2885645.8    564403.17    0.5272683     47.80516     47.80516    246.96755 
  586300    26507    302.89275   -190.16745   -2909402.6     23931.36   -2885471.2    564610.73   0.52707446    47.811525    47.811525    246.99259 
  586400    26507    300.30065   -1366.1727   -2909458.9    23726.559   -2885732.4    564427.82   0.52724526    47.801357    47.801357    247.01763 
  586500    26507    300.61074   -246.28462   -2909640.6     23751.06   -2885889.6    564375.25   0.52729438    47.796708    47.796708    247.04268 
  586600    26507    300.22313   -121.10668     -2909625    23720.435   -2885904.6    564098.32   0.52755324    47.782558    47.782558    247.06772 
  586700    26507     299.8976    733.01307   -2909622.9    23694.715   -2885928.2    564000.19   0.52764503    47.775981    47.775981    247.09276 
  586800    26507    297.96463   -892.29106   -2909577.6    23541.992   -2886035.6    564180.08   0.52747679    47.781179    47.781179     247.1178 
  586900    26507    297.08018   -251.53385     -2909657    23472.112   -2886184.9    564294.72   0.52736963    47.783611    47.783611    247.14285 
  587000    26507    298.31248    301.35443   -2909631.1    23569.475   -2886061.7    564450.64   0.52722395    47.787792    47.787792    247.16789 
  587100    26507    301.65345    492.52356   -2909624.9    23833.443   -2885791.5    564123.51   0.52752968    47.771522    47.771522    247.19293 
  587200    26507    301.44108   -2.1374164   -2909619.3    23816.664   -2885802.7    564270.83   0.52739195    47.775339    47.775339    247.21797 
  587300    26507    299.76414    560.16067     -2909609     23684.17   -2885924.8    564579.39   0.52710372     47.78598     47.78598    247.24301 
  587400    26507    299.07222   -951.18396   -2909581.1    23629.502   -2885951.6    564623.84   0.52706222    47.785441    47.785441    247.26806 
  587500    26507    301.99392   -555.41012   -2909592.1    23860.343   -2885731.8    564876.72   0.52682627    47.793721    47.793721     247.2931 
  587600    26507    302.28049   -291.30273   -2909443.2    23882.985   -2885560.2    564786.79   0.52691016    47.787496    47.787496    247.31814 
  587700    26507    301.34674   -124.80008   -2909551.4    23809.211   -2885742.2    564298.19   0.52736638    47.764403    47.764403    247.34318 
  587800    26507    299.30433   -1057.5524   -2909580.9    23647.841   -2885933.1    563700.81   0.52792526    47.736698    47.736698    247.36823 
  587900    26507    299.60385   -840.05003     -2909647    23671.505   -2885975.5    563469.38   0.52814209    47.724482    47.724482    247.39327 
  588000    26507    299.54095    1144.8542   -2909593.6    23666.536     -2885927    563652.13   0.52797085    47.729805    47.729805    247.41831 
  588100    26507     300.9715    240.34288   -2909527.2    23779.563   -2885747.6    563523.44   0.52809143    47.721941    47.721941    247.44335 
  588200    26507    302.02403   -119.30421   -2909303.6    23862.723   -2885440.9    562917.45   0.52865993    47.693861    47.693861     247.4684 
  588300    26507    302.64565   -1127.8469   -2909406.3    23911.836   -2885494.4    562622.75   0.52893683    47.678963    47.678963    247.49344 
  588400    26507    301.34356   -389.15274   -2909651.3    23808.959   -2885842.3    562641.05   0.52891964    47.677326    47.677326    247.51848 
  588500    26507    299.23458    783.56177   -2909621.1     23642.33   -2885978.8    562733.44   0.52883279    47.678829    47.678829    247.54352 
  588600    26507    299.39569   -591.73177   -2909629.4    23655.059   -2885974.4     563331.1   0.52827173    47.701728    47.701728    247.56856 
  588700    26507    301.07182    361.81304   -2909575.1    23787.489   -2885787.6     563619.5   0.52800142    47.711524    47.711524    247.59361 
  588800    26507    301.76188    696.57638     -2909476     23842.01     -2885634    563958.87   0.52768369    47.723473    47.723473    247.61865 
  588900    26507    301.46115    614.54434   -2909533.9     23818.25   -2885715.7     563801.4   0.52783107    47.714397    47.714397    247.64369 
  589000    26507    298.34257   -205.93869   -2909593.9    23571.853   -2886022.1    563878.86   0.52775856    47.715262    47.715262    247.66873 
  589100    26507     298.8667   -189.82045   -2909599.5    23613.264   -2885986.2    564023.43   0.52762329    47.718966    47.718966    247.69378 
  589200    26507    297.75238     460.5391   -2909335.7    23525.222   -2885810.5    564201.47   0.52745679    47.724084    47.724084    247.71882 
  589300    26507    299.97389    1015.9726   -2909395.2    23700.743   -2885694.5    564462.92   0.52721249    47.732728    47.732728    247.74386 
  589400    26507    299.29871   -479.57089     -2909458    23647.397   -2885810.6    564186.28   0.52747099    47.718618    47.718618     247.7689 
  589500    26507    297.30783   -992.55554     -2909606    23490.099   -2886115.9    563400.04   0.52820709    47.682947    47.682947    247.79395 
  589600    26507    297.61246    -396.0998   -2909738.5    23514.167   -2886224.4    563472.55   0.52813912    47.683606    47.683606    247.81899 
  589700    26507     296.8365    894.79614   -2909607.8    23452.859   -2886154.9    563554.25   0.52806256    47.684654    47.684654    247.84403 
  589800    26507    300.02995    434.56233   -2909722.5    23705.172   -2886017.3    563745.89   0.52788304    47.690352    47.690352    247.86907 
  589900    26507    300.43831    1058.6115   -2909665.2    23737.436   -2885927.7    563767.05   0.52786323    47.688838    47.688838    247.89412 
  590000    26507    299.02161   -198.99371   -2909497.3    23625.503   -2885871.8    563852.73   0.52778302    47.690052    47.690052    247.91916 
  590100    26507    302.16394    973.69395   -2909526.1    23873.776   -2885652.3    563468.81   0.52814263    47.671406    47.671406     247.9442 
  590200    26507    299.58345    772.78538   -2909168.1    23669.894   -2885498.2    563461.75   0.52814924      47.6687      47.6687    247.96924 
  590300    26507    301.35762    -1327.768   -2909541.6     23810.07   -2885731.5    563600.21   0.52801949     47.67215     47.67215    247.99428 
  590400    26507    301.50305   -907.73064   -2909728.7     23821.56   -2885907.1    563877.94   0.52775942    47.681487    47.681487    248.01933 
  590500    26507    299.24384   -707.82406   -2909560.4    23643.061   -2885917.3    563905.26   0.52773385    47.680235    47.680235    248.04437 
  590600    26507    298.86556   -516.03656   -2909495.9    23613.174   -2885882.8    564349.13   0.52731879    47.696589    47.696589    248.06941 
  590700    26507    300.63609   -240.08014   -2909459.1    23753.063     -2885706    564693.09   0.52699759    47.708714    47.708714    248.09445 
  590800    26507    301.59377   -487.20916   -2909370.6    23828.728   -2885541.8    565103.34     0.526615    47.723632    47.723632     248.1195 
  590900    26507    299.80332   -462.34834   -2909479.3    23687.266     -2885792    565774.05   0.52599072    47.749535    47.749535    248.14454 
  591000    26507    299.45665     526.3554   -2909653.6    23659.875   -2885993.7     565939.9   0.52583657    47.754124    47.754124    248.16958 
  591100    26507    300.35318    16.234316   -2909604.6     23730.71   -2885873.9    566111.07   0.52567758    47.758936    47.758936    248.19462 
  591200    26507    300.54522    806.69404   -2909476.1    23745.883   -2885730.2    566147.95   0.52564333    47.758082    47.758082    248.21967 
  591300    26507    300.31557    751.24305   -2909470.8    23727.739     -2885743    566481.63   0.52533371    47.769744    47.769744    248.24471 
  591400    26507    300.57945    314.66459   -2909751.2    23748.587   -2886002.6    565794.85   0.52597138     47.73837     47.73837    248.26975 
  591500    26507    300.00096     510.6117     -2909875    23702.882   -2886172.1    565226.96   0.52649983    47.712001    47.712001    248.29479 
  591600    26507  