LAMMPS (2 Aug 2019)
# lammps code to simulate tension test on RVE of nanocomposite with crack
# crack needs to be initiated first
# system is already equilibrated
# delete some atoms from a region to intiate a crack
# 40 % functionalized cnt with -OH group
# no cnt fix during equilibration in MS
# load equilibrated structure

read_restart    restart.npt_equi
  restoring atom style charge from restart
  orthogonal box = (0.264398 1.58147 1.14581) to (50.4965 51.8135 101.61)
  2 by 2 by 7 MPI processor grid
  pair style reax/c stores no restart info
  26978 atoms
  read_restart CPU = 0.140229 secs

# ReaxFF potential to define interatomic interactions

pair_style	reax/c control_file lgvdw yes
pair_coeff	* * ffield.reax.lg C C H O H C C C O O C C
Reading potential file ffield.reax.lg with DATE: 2012-01-06

neighbor	4 bin
neigh_modify	every 10 delay 0 check no

thermo 100
thermo_style custom step atoms temp press pe ke etotal vol density lx ly lz      #output variables

compute pnc_temp all temp
compute pnc_pe all pe/atom
compute pnc_stress all stress/atom pnc_temp pair bond
compute pnc_str all reduce sum c_pnc_stress[3]

variable tmpz equal "lz"
variable L0z equal ${tmpz}
variable L0z equal 100.464157593733
variable tmpx equal "lx"
variable L0x equal ${tmpx}
variable L0x equal 50.2320787968664
variable tmpy equal "ly"
variable L0y equal ${tmpy}
variable L0y equal 50.2320787968664

# define groups of atoms to delete

fix std all qeq/reax 1 0.0 10.0 1e-6 reax/c

region atoms_for_deletion block EDGE 16.5 EDGE EDGE 49.554905 52.054905              # NOTE: box size will change after equilibration
delete_atoms region atoms_for_deletion
Deleted 225 atoms, new total = 26753
reset_ids
Resetting atom IDs ...
Unused restart file global fix info:
  fix style: npt, fix ID: npt_equi
Neighbor list info ...
  update every 10 steps, delay 0 steps, check no
  max neighbors/atom: 2000, page size: 100000
  master list distance cutoff = 14
  ghost atom cutoff = 14
  binsize = 7, bins = 8 8 15
  2 neighbor lists, perpetual/occasional/extra = 2 0 0
  (1) pair reax/c, perpetual
      attributes: half, newton off, ghost
      pair build: half/bin/newtoff/ghost
      stencil: half/ghost/bin/3d/newtoff
      bin: standard
  (2) fix qeq/reax, perpetual, copy from (1)
      attributes: half, newton off, ghost
      pair build: copy
      stencil: none
      bin: none

reset_timestep 0
timestep 0.25
thermo_style custom step atoms temp press pe ke etotal vol density lx ly lz
fix 1 all npt temp 300.0 300.0 25.0 x 0.0 0.0 250.0 y 0.0 0.0 250.0 couple xy
fix 2 all deform 1 z erate 0.00001 units box
fix bd all reax/c/bonds 1000 bonds.reaxc
dump deform1 all custom 1000 dump.deform id type x y z

variable strainz equal "(lz-v_L0z)/v_L0z"
variable strainx equal "(lx-v_L0x)/v_L0x"
variable strainy equal "(ly-v_L0y)/v_L0y"
variable stressz equal "-pzz/10000"
variable p1 equal "v_stressz"
variable p2 equal "v_strainz"
variable p3 equal "v_strainx"
variable p4 equal "v_strainy"
fix 3 all print 100 "${p1} ${p2} ${p3} ${p4}" file pmma_pnc_funct_40_crack.txt screen no

run 600000
Per MPI rank memory allocation (min/avg/max) = 268.7 | 285.5 | 300.5 Mbytes
Step Atoms Temp Press PotEng KinEng TotEng Volume Density Lx Ly Lz 
       0    26753    298.50058    178.92877   -2921849.7    23803.221   -2898046.5    253497.37    1.1876739    50.232079    50.232079    100.46416 
     100    26753    311.15199   -641.32964   -2923301.4    24812.078   -2898489.3    253506.49    1.1876312    50.226704    50.226704    100.48927 
     200    26753    307.61571   -140.10029   -2923738.6    24530.086   -2899208.6    253795.52    1.1862787     50.24905     50.24905    100.51439 
     300    26753    304.82049   -981.76856   -2924273.7    24307.188   -2899966.5    254173.24    1.1845158    50.280147    50.280147    100.53951 
     400    26753    305.06349   -877.21464   -2924968.5    24326.565   -2900641.9    254098.99    1.1848619    50.266524    50.266524    100.56462 
     500    26753    301.74154   -549.68228   -2925298.8    24061.664   -2901237.2    253686.84    1.1867869     50.21947     50.21947    100.58974 
     600    26753    300.30406    924.31025   -2925545.3    23947.035   -2901598.2    253682.47    1.1868073     50.21277     50.21277    100.61485 
     700    26753    298.23026    379.35896   -2925587.2    23781.665   -2901805.6    253956.37    1.1855273      50.2336      50.2336    100.63997 
     800    26753    300.48925   -1465.8756   -2925761.6    23961.803   -2901799.8    254228.47    1.1842584    50.254234    50.254234    100.66509 
     900    26753    301.37332     -637.648   -2925801.5    24032.301   -2901769.1     254292.1    1.1839621    50.254254    50.254254     100.6902 
    1000    26753    297.70377    916.01241   -2925586.6    23739.682   -2901846.9    254326.07     1.183804    50.251343    50.251343    100.71532 
    1100    26753    296.09562    1807.1083   -2925610.5    23611.444   -2901999.1    254522.81    1.1828889     50.26451     50.26451    100.74043 
    1200    26753    298.24271   -1122.1003   -2925911.6    23782.658     -2902129    254747.08    1.1818475    50.280382    50.280382    100.76555 
    1300    26753    296.12204    1160.5713   -2925745.3     23613.55   -2902131.7     254738.2    1.1818887    50.273241    50.273241    100.79067 
    1400    26753    299.12041   -159.52872   -2925778.1    23852.648   -2901925.4     254787.5    1.1816601    50.271842    50.271842    100.81578 
    1500    26753    301.77206   -444.08361   -2925848.2    24064.098   -2901784.1    254772.57    1.1817293    50.264108    50.264108     100.8409 
    1600    26753    300.04035   -108.48868   -2925806.3    23926.006   -2901880.3    254867.59    1.1812887    50.267221    50.267221    100.86601 
    1700    26753    299.19446   -13.033773   -2926006.8    23858.553   -2902148.3    254955.33    1.1808822    50.269615    50.269615    100.89113 
    1800    26753     298.1177   -1421.1271   -2925964.6    23772.689   -2902191.9    255183.36     1.179827    50.285831    50.285831    100.91625 
    1900    26753    300.36783   -3638.2999   -2926080.1    23952.121     -2902128    255293.28     1.179319    50.290402    50.290402    100.94136 
    2000    26753    301.57382   -1440.6302   -2925884.6     24048.29   -2901836.3    255441.71    1.1786337    50.298763    50.298763    100.96648 
    2100    26753    302.39852   -51.983725   -2925877.3    24114.053   -2901763.2    255643.41    1.1777038     50.31236     50.31236    100.99159 
    2200    26753    303.20733   -874.30573   -2926098.9     24178.55   -2901920.3    255827.81    1.1768549    50.324245    50.324245    101.01671 
    2300    26753    298.09027    1154.0326   -2925758.8    23770.502   -2901988.3    255913.15    1.1764624    50.326382    50.326382    101.04183 
    2400    26753    299.53468   -903.59817   -2925847.6    23885.684   -2901961.9    255892.64    1.1765567    50.318112    50.318112    101.06694 
    2500    26753    301.48672    1170.2479   -2926074.5    24041.344   -2902033.1    255804.94    1.1769601    50.303238    50.303238    101.09206 
    2600    26753    297.98676   -352.22829   -2926139.2    23762.248     -2902377    255867.22    1.1766737    50.303113    50.303113    101.11717 
    2700    26753     300.0542    1641.1352   -2926333.9    23927.111   -2902406.8    256189.41    1.1751938    50.328525    50.328525    101.14229 
    2800    26753    299.78128   -3794.5329     -2926169    23905.347   -2902263.7    256235.82    1.1749809    50.326835    50.326835    101.16741 
    2900    26753    299.38564   -2801.2502   -2925964.4    23873.798   -2902090.6    256017.35    1.1759836    50.299131    50.299131    101.19252 
    3000    26753    301.30988    269.74593   -2926067.6    24027.243   -2902040.3    255979.72    1.1761565    50.289195    50.289195    101.21764 
    3100    26753    301.69969    -249.0503   -2926228.5    24058.326   -2902170.2    256029.51    1.1759278    50.287846    50.287846    101.24275 
    3200    26753    298.59811   -967.04618   -2926354.9    23810.999   -2902543.9    256033.46    1.1759096    50.281998    50.281998    101.26787 
    3300    26753    297.58908   -940.51478   -2926244.6    23730.536     -2902514    255845.38    1.1767741    50.257294    50.257294    101.29299 
    3400    26753    299.81656    551.87969   -2926205.5    23908.161   -2902297.3    255827.17    1.1768579    50.249276    50.249276     101.3181 
    3500    26753     302.4339   -122.11799     -2926230    24116.875   -2902113.2    256044.76    1.1758578    50.264411    50.264411    101.34322 
    3600    26753    301.28685   -1910.0844   -2926108.7    24025.406   -2902083.3    256025.16    1.1759478     50.25626     50.25626    101.36834 
    3700    26753     299.6023    745.05074     -2926131    23891.075     -2902240    255889.42    1.1765716    50.236712    50.236712    101.39345 
    3800    26753    299.29473    1419.5264   -2926350.9    23866.549   -2902484.4    255701.95    1.1774341    50.212089    50.212089    101.41857 
    3900    26753    299.30692    2471.7927     -2926333    23867.521   -2902465.5     255692.4    1.1774781    50.204935    50.204935    101.44368 
    4000    26753    300.78669    1880.4131   -2926348.8    23985.522   -2902363.2    255603.58    1.1778873    50.190001    50.190001     101.4688 
    4100    26753    299.39482   -1195.8094   -2926202.8     23874.53   -2902328.3    255434.66    1.1786662    50.167206    50.167206    101.49392 
    4200    26753    300.85609   -1787.8692   -2926190.4    23991.056   -2902199.3    255440.87    1.1786376    50.161609    50.161609    101.51903 
    4300    26753    298.89798   -838.43989   -2925945.8    23834.911   -2902110.9    255189.42     1.179799    50.130713    50.130713    101.54415 
    4400    26753    299.09678    1286.5955   -2926135.6    23850.764   -2902284.8    255055.96    1.1804163    50.111406    50.111406    101.56926 
    4500    26753    298.56055   -2881.6549   -2926368.5    23808.004   -2902560.5    255314.77    1.1792197    50.130626    50.130626    101.59438 
    4600    26753    302.32995    322.46223   -2926652.5    24108.585   -2902543.9    255383.85    1.1789008    50.131211    50.131211     101.6195 
    4700    26753    298.64867   -1163.6929   -2926195.7    23815.031   -2902380.7    255365.88    1.1789837    50.123254    50.123254    101.64461 
    4800    26753    303.62825   -1414.5303   -2926381.6    24212.115   -2902169.5    254868.98    1.1812823    50.068279    50.068279    101.66973 
    4900    26753    299.43753    1352.8197   -2926160.2    23877.936   -2902282.3    254851.61    1.1813628     50.06039     50.06039    101.69484 
    5000    26753    298.36457   -366.52301   -2926140.4    23792.375     -2902348    255036.24    1.1805076    50.072337    50.072337    101.71996 
    5100    26753    300.88665    1776.6339   -2926375.3    23993.493   -2902381.8    255081.51    1.1802981      50.0706      50.0706    101.74508 
    5200    26753    299.77505    1419.4299   -2926388.7    23904.851   -2902483.9    255034.36    1.1805163    50.059793    50.059793    101.77019 
    5300    26753    297.11419    428.52574   -2926502.4    23692.667   -2902809.7    255080.08    1.1803047    50.058103    50.058103    101.79531 
    5400    26753    298.58597   -1027.8642   -2926530.4    23810.031   -2902720.3    255087.32    1.1802712     50.05264     50.05264    101.82042 
    5500    26753    298.55646    775.56936   -2926284.8    23807.677   -2902477.1    255277.14    1.1793935    50.065085    50.065085    101.84554 
    5600    26753    301.50322    2078.4863   -2926349.7    24042.659     -2902307    255428.89    1.1786929     50.07379     50.07379    101.87066 
    5700    26753    301.72408   -1717.0563   -2926265.4    24060.272   -2902205.1    255424.15    1.1787147    50.067153    50.067153    101.89577 
    5800    26753    299.42201   -1649.4533   -2926189.4    23876.698   -2902312.7    255360.81    1.1790071    50.054776    50.054776    101.92089 
    5900    26753    298.97955    730.69492   -2926459.6    23841.416   -2902618.1    255269.25      1.17943    50.039637    50.039637      101.946 
    6000    26753    296.72418    501.67672   -2926379.1    23661.566   -2902717.6    255464.05    1.1785306    50.052561    50.052561    101.97112 
    6100    26753    297.79547   -2378.2512   -2926305.6    23746.994   -2902558.6    255682.28    1.1775247     50.06777     50.06777    101.99624 
    6200    26753    299.61986   -53.885281   -2926329.1    23892.476   -2902436.6     255954.8     1.176271    50.088278    50.088278    102.02135 
    6300    26753    299.90679   -657.86086     -2926269    23915.356   -2902353.6    256054.47    1.1758132    50.091864    50.091864    102.04647 
    6400    26753    301.59082    106.10485   -2926273.1    24049.645   -2902223.5    256075.54    1.1757164    50.087761    50.087761    102.07158 
    6500    26753     302.9605   -714.96307   -2926357.6    24158.867   -2902198.8    255863.39    1.1766913     50.06085     50.06085     102.0967 
    6600    26753    299.07009   -1448.6623   -2926417.2    23848.636   -2902568.6    255865.52    1.1766814    50.054903    50.054903    102.12182 
    6700    26753    299.04677   -1343.8995   -2926534.7    23846.776     -2902688    255794.92    1.1770062    50.041843    50.041843    102.14693 
    6800    26753    300.38233     535.9771   -2926448.5    23953.277   -2902495.2    255562.78    1.1780753    50.012983    50.012983    102.17205 
    6900    26753    300.30138    1700.1733   -2926325.4    23946.822   -2902378.5    255464.16    1.1785301    49.997186    49.997186    102.19716 
    7000    26753     300.5854   -459.08429   -2926313.7     23969.47   -2902344.3     255465.1    1.1785258    49.991136    49.991136    102.22228 
    7100    26753    298.33164   -1919.4403   -2926145.4     23789.75   -2902355.7    255631.77    1.1777574    50.001299    50.001299     102.2474 
    7200    26753    297.75001    148.60604   -2926164.2    23743.369   -2902420.8    255881.32    1.1766088    50.019556    50.019556    102.27251 
    7300    26753    299.83871    744.11773   -2926281.2    23909.927   -2902371.3    256047.74    1.1758441    50.029676    50.029676    102.29763 
    7400    26753    300.71568    1266.2392   -2926304.1    23979.859   -2902324.3    255967.34    1.1762134    50.015682    50.015682    102.32274 
    7500    26753    298.89449    84.723801   -2926319.9    23834.633   -2902485.3    255628.97    1.1777703    49.976479    49.976479    102.34786 
    7600    26753    300.94897   -661.44344   -2926679.7    23998.463   -2902681.2    255394.24    1.1788528    49.947399    49.947399    102.37298 
    7700    26753    299.40956   -1207.1552   -2926664.5    23875.706   -2902788.8    255485.96    1.1784296    49.950241    49.950241    102.39809 
    7800    26753    300.64765    1143.3369   -2926679.2    23974.435   -2902704.8    255589.87    1.1779505    49.954272    49.954272    102.42321 
    7900    26753    300.05596     7.464352   -2926270.8    23927.251   -2902343.5    255761.78    1.1771587    49.964942    49.964942    102.44832 
    8000    26753    300.83574   -953.61075   -2926288.9    23989.434   -2902299.5    255642.49     1.177708    49.947167    49.947167    102.47344 
    8100    26753    299.39046     8.721441   -2926329.8    23874.183   -2902455.6    255863.74    1.1766896    49.962654    49.962654    102.49856 
    8200    26753    299.39453   -1239.9404   -2926542.5    23874.507     -2902668    256108.89    1.1755633     49.98046     49.98046    102.52367 
    8300    26753    299.10777   -1708.7531   -2926522.8     23851.64   -2902671.1    256198.41    1.1751525    49.983072    49.983072    102.54879 
    8400    26753    300.79752    1126.0875   -2926565.1    23986.385   -2902578.7     256161.9      1.17532    49.973392    49.973392     102.5739 
    8500    26753    299.20836   -2234.6856   -2926439.6    23859.662   -2902579.9    256214.88     1.175077    49.972441    49.972441    102.59902 
    8600    26753    300.12505    1069.2825   -2926458.6    23932.761   -2902525.8    256547.94    1.1735515    49.998792    49.998792    102.62414 
    8700    26753    299.82072    346.94929   -2926296.4    23908.493   -2902387.9    256794.47    1.1724248    50.016689    50.016689    102.64925 
    8800    26753    301.03666   -1853.9338   -2926321.1    24005.455   -2902315.6    256911.42    1.1718911    50.021957    50.021957    102.67437 
    8900    26753    301.27725    526.65377     -2926351    24024.641   -2902326.3    256769.87    1.1725372     50.00206     50.00206    102.69949 
    9000    26753    300.93917    837.63059     -2926419    23997.681   -2902421.3    256547.35    1.1735541    49.974279    49.974279     102.7246 
    9100    26753     300.6289   -498.62414   -2926554.6     23972.94   -2902581.6     256371.4    1.1743596    49.951033    49.951033    102.74972 
    9200    26753    299.26145   -744.92152   -2926606.7    23863.895   -2902742.8    256097.34    1.1756163    49.918226    49.918226    102.77483 
    9300    26753    298.40485   -736.43913   -2926539.4    23795.587   -2902743.8     255782.6    1.1770629    49.881447    49.881447    102.79995 
    9400    26753    303.38546   -2341.2446     -2926537    24192.754   -2902344.2    255612.99    1.1778439    49.858816    49.858816    102.82507 
    9500    26753      300.866    713.18551   -2926307.9    23991.846   -2902316.1    255802.49    1.1769714    49.871204    49.871204    102.85018 
    9600    26753    298.52101   -1040.9808   -2926276.8    23804.851   -2902471.9    255798.03    1.1769919    49.864681    49.864681     102.8753 
    9700    26753    298.62517     712.2595   -2926418.3    23813.156   -2902605.1    255915.54    1.1764515    49.870046    49.870046    102.90041 
    9800    26753    297.01223    -1542.539   -2926320.1    23684.536   -2902635.6    256013.26    1.1760024     49.87348     49.87348    102.92553 
    9900    26753    302.37879   -1790.1858   -2926435.6     24112.48   -2902323.1    256175.99    1.1752554    49.883243    49.883243    102.95065 
   10000    26753    301.16777    1070.9989   -2926300.1     24015.91   -2902284.2    256185.82    1.1752103    49.878116    49.878116    102.97576 
   10100    26753    299.34311    -1724.926     -2926270    23870.407   -2902399.6    256294.65    1.1747112    49.882626    49.882626    103.00088 
   10200    26753    301.76337   -798.11969     -2926597    24063.405   -2902533.6     256645.3    1.1731063    49.910653    49.910653    103.02599 
   10300    26753    297.36566   -1181.5552   -2926343.5     23712.72   -2902630.8     256863.8    1.1721084     49.92581     49.92581    103.05111 
   10400    26753    300.73721   -2029.9365   -2926467.1    23981.576   -2902485.5    256883.21    1.1720198    49.921613    49.921613    103.07623 
   10500    26753    302.13665   -1179.0017   -2926235.8    24093.171   -2902142.6    256733.18    1.1727047    49.900953    49.900953    103.10134 
   10600    26753    302.12721    434.29622   -2926326.3    24092.419   -2902233.8     256687.3    1.1729143    49.890418    49.890418    103.12646 
   10700    26753    299.61948   -2894.5492   -2926371.4    23892.445     -2902479    256833.91    1.1722448    49.898587    49.898587    103.15157 
   10800    26753    300.28769   -1503.7208     -2926526     23945.73   -2902580.3    257080.61    1.1711199     49.91647     49.91647    103.17669 
   10900    26753    299.52773      1442.96   -2926453.3    23885.129   -2902568.2    257123.94    1.1709225    49.914601    49.914601    103.20181 
   11000    26753    300.02682   -1908.1325   -2926313.1    23924.928   -2902388.2    257200.42    1.1705744     49.91595     49.91595    103.22692 
   11100    26753    303.62396   -328.22195   -2926312.3    24211.773   -2902100.5    257085.69    1.1710967    49.898747    49.898747    103.25204 
   11200    26753    299.89299     66.65689   -2926139.5    23914.256   -2902225.3    257025.74    1.1713699    49.886861    49.886861    103.27715 
   11300    26753     301.0619    3227.0776   -2926379.9    24007.468   -2902372.4    256761.75    1.1725742    49.855173    49.855173    103.30227 
   11400    26753    301.58768    756.81821   -2926510.2    24049.395   -2902460.8    256622.71    1.1732095    49.835615    49.835615    103.32739 
   11500    26753    298.28971    144.64026   -2926376.7    23786.406   -2902590.3    256360.73    1.1744084    49.804118    49.804118     103.3525 
   11600    26753    300.54322    -710.4161   -2926568.5    23966.107   -2902602.4    256161.76    1.1753207    49.778739    49.778739    103.37762 
   11700    26753     299.9487    3990.2774   -2926406.1    23918.698   -2902487.4    256094.25    1.1756305    49.766134    49.766134    103.40273 
   11800    26753      300.085   -1800.1216   -2926187.4    23929.567   -2902257.8     256481.7    1.1738546    49.797718    49.797718    103.42785 
   11900    26753    301.51103     767.9261   -2926325.5    24043.282   -2902282.2    256605.16    1.1732898    49.803656    49.803656    103.45297 
   12000    26753    298.54203   -1238.1962     -2926324    23806.527   -2902517.4    256826.45    1.1722788    49.819078    49.819078    103.47808 
   12100    26753    298.24004    710.88995   -2926406.4    23782.445     -2902624    256893.08    1.1719748    49.819495    49.819495     103.5032 
   12200    26753    299.16813   -1998.3983   -2926394.9    23856.454   -2902538.4    257041.62    1.1712975    49.827851    49.827851    103.52831 
   12300    26753    299.23875   -2337.6162   -2926209.5    23862.085   -2902347.4    257239.15    1.1703981    49.840947    49.840947    103.55343 
   12400    26753    300.35841   -229.35802   -2926228.4    23951.369     -2902277    257410.96    1.1696169    49.851543    49.851543    103.57855 
   12500    26753    299.74705   -121.19816   -2926234.5    23902.618   -2902331.9    257285.46    1.1701874    49.833348    49.833348    103.60366 
   12600    26753    298.94119    2087.3427   -2926282.3    23838.357     -2902444    257198.15    1.1705847    49.818853    49.818853    103.62878 
   12700    26753    298.01623   -2184.1729     -2926403    23764.598   -2902638.4    257573.56    1.1688785    49.849159    49.849159    103.65389 
   12800    26753    298.50699   -647.69842   -2926466.9    23803.733   -2902663.2    257501.47    1.1692058    49.836144    49.836144    103.67901 
   12900    26753    299.82167     463.6404   -2926318.9    23908.568   -2902410.3    257323.15     1.170016    49.812852    49.812852    103.70413 
   13000    26753    301.75897   -2626.8544   -2926311.8    24063.054   -2902248.7    257619.43    1.1686704    49.835487    49.835487    103.72924 
   13100    26753    300.90344   -1447.0809   -2926394.8    23994.832     -2902400    257788.45    1.1679042    49.845797    49.845797    103.75436 
   13200    26753    299.54788    1659.5721   -2926371.6    23886.736   -2902484.8    257793.34    1.1678821    49.840238    49.840238    103.77947 
   13300    26753    299.47995   -1692.5317     -2926309    23881.319   -2902427.7    257721.02    1.1682098    49.827218    49.827218    103.80459 
   13400    26753    302.10608   -1948.0371   -2926307.1    24090.733   -2902216.4    257757.48    1.1680445    49.824715    49.824715    103.82971 
   13500    26753     304.0519   -2520.7732     -2926287    24245.898   -2902041.1    257687.76    1.1683605    49.811952    49.811952    103.85482 
   13600    26753    300.44407    1139.0423     -2926334      23958.2   -2902375.8    257449.21    1.1694431    49.782871    49.782871    103.87994 
   13700    26753    299.37222    836.85281   -2926351.1    23872.728   -2902478.3    257310.03    1.1700757    49.763397    49.763397    103.90505 
   13800    26753    299.80044   -1576.8533   -2926480.8    23906.876   -2902573.9    257158.26    1.1707663    49.742707    49.742707    103.93017 
   13900    26753    299.80961     -2134.58   -2926662.2    23907.607   -2902754.6    256962.36    1.1716588     49.71775     49.71775    103.95529 
   14000    26753    298.62071   -251.40259   -2926581.8    23812.801     -2902769    256769.09    1.1725407    49.693047    49.693047     103.9804 
   14100    26753    300.61731   -435.86311   -2926436.8    23972.015   -2902464.8     256489.9     1.173817    49.660026    49.660026    104.00552 
   14200    26753    301.50409    1370.8084   -2926399.5    24042.729   -2902356.8    256265.01    1.1748471    49.632257    49.632257    104.03064 
   14300    26753    301.25737   -680.90322   -2926478.8    24023.055   -2902455.7    256213.53    1.1750832    49.621283    49.621283    104.05575 
   14400    26753    299.48089   -1812.9499   -2926467.5    23881.394   -2902586.1    256230.99    1.1750031    49.616986    49.616986    104.08087 
   14500    26753    299.00717   -3686.3374   -2926446.3    23843.619   -2902602.7    256307.24    1.1746536    49.618381    49.618381    104.10598 
   14600    26753    300.97172    111.87952     -2926451    24000.277   -2902450.7    256485.67    1.1738364    49.629663    49.629663     104.1311 
   14700    26753     301.0353    992.63778   -2926190.8    24005.347   -2902185.5    256821.54    1.1723012    49.656159    49.656159    104.15622 
   14800    26753    302.36102   -1002.6546   -2926454.8    24111.063   -2902343.7    257114.91    1.1709636    49.678524    49.678524    104.18133 
   14900    26753    298.97153   -2904.2075   -2926393.6    23840.776   -2902552.8    257613.95    1.1686953    49.720718    49.720718    104.20645 
   15000    26753    300.50784    461.40319   -2926555.4    23963.285   -2902592.1    257871.17    1.1675296     49.73954     49.73954    104.23156 
   15100    26753    300.11018    71.294199   -2926546.1    23931.575   -2902614.5    258075.53     1.166605    49.753252    49.753252    104.25668 
   15200    26753    298.99692    2224.0052   -2926457.8    23842.801     -2902615    258308.57    1.1655526    49.769715    49.769715     104.2818 
   15300    26753    299.12392   -389.77095   -2926391.5    23852.928   -2902538.5    258289.98    1.1656364    49.761932    49.761932    104.30691 
   15400    26753    300.91536    1601.7191   -2926338.3    23995.782   -2902342.5    258385.41    1.1652059    49.765134    49.765134    104.33203 
   15500    26753    301.79086    503.50811   -2926331.5    24065.597   -2902265.9    258553.04    1.1644505    49.775283    49.775283    104.35714 
   15600    26753    302.14015   -1145.4496   -2926626.1     24093.45   -2902532.7    258335.06     1.165433     49.74831     49.74831    104.38226 
   15700    26753    300.08573   -619.85522   -2926627.6    23929.625     -2902698    257829.13    1.1677199    49.693593    49.693593    104.40738 
   15800    26753    298.49236   -216.80735   -2926509.5    23802.566   -2902706.9     257321.7    1.1700226    49.638699    49.638699    104.43249 
   15900    26753    300.42959    1102.6026   -2926503.2    23957.046   -2902546.1    257068.13    1.1711767     49.60827     49.60827    104.45761 
   16000    26753    300.60761   -768.45116   -2926379.7    23971.241   -2902408.5    257169.23    1.1707163     49.61206     49.61206    104.48272 
   16100    26753    300.80986     152.0853   -2926482.7     23987.37   -2902495.4    257022.54    1.1713845    49.591949    49.591949    104.50784 
   16200    26753    297.35355   -449.37174   -2926517.8    23711.754     -2902806    256774.85    1.1725144    49.562091    49.562091    104.53296 
   16300    26753    298.69785   -94.231797   -2926570.5    23818.952   -2902751.6    256799.19    1.1724033    49.558487    49.558487    104.55807 
   16400    26753     299.6093     153.9353   -2926490.3    23891.634   -2902598.7    257041.34    1.1712988    49.575894    49.575894    104.58319 
   16500    26753    300.03868   -2922.1039   -2926430.9    23925.874     -2902505     257356.9    1.1698626     49.60036     49.60036     104.6083 
   16600    26753    300.12803   -998.95421   -2926233.7    23932.998   -2902300.7    257561.14    1.1689349    49.614082    49.614082    104.63342 
   16700    26753    301.92938   -3037.0361   -2926130.8    24076.643   -2902054.2    257908.68    1.1673598    49.641586    49.641586    104.65854 
   16800    26753    300.71694   -1112.3999   -2926201.7    23979.959   -2902221.7    257937.77    1.1672281     49.63843     49.63843    104.68365 
   16900    26753    300.92445   -760.46227   -2926449.6    23996.507   -2902453.1    257777.84    1.1679522    49.617088    49.617088    104.70877 
   17000    26753    298.03833    492.43686   -2926345.9     23766.36   -2902579.5    257930.67    1.1672602    49.625842    49.625842    104.73388 
   17100    26753    300.65671   -128.03231   -2926586.9    23975.157   -2902611.8    258254.45    1.1657968    49.651027    49.651027      104.759 
   17200    26753    298.83956   -595.32503   -2926468.6    23830.253   -2902638.4    258231.37     1.165901    49.642857    49.642857    104.78412 
   17300    26753    301.72641   -1049.9822   -2926494.9    24060.458   -2902434.5    258142.81     1.166301    49.628397    49.628397    104.80923 
   17400    26753    299.24584   -3154.8407   -2926105.5     23862.65   -2902242.8    258160.33    1.1662218    49.624135    49.624135    104.83435 
   17500    26753    302.34814   -2765.4368   -2926361.6    24110.036   -2902251.6    258046.66    1.1667356    49.607267    49.607267    104.85946 
   17600    26753    299.74602    164.51757     -2926465    23902.536   -2902562.5    257988.68    1.1669977    49.595755    49.595755    104.88458 
   17700    26753    299.72556    323.10269   -2926514.4    23900.904   -2902613.5    258180.74    1.1661296    49.608273    49.608273     104.9097 
   17800    26753    300.14677   -870.61606   -2926466.8    23934.493   -2902532.3    258462.86    1.1648567    49.629429    49.629429    104.93481 
   17900    26753    299.42287    2066.9243   -2926263.9    23876.767   -2902387.1    258717.35     1.163711    49.647915    49.647915    104.95993 
   18000    26753    299.93784    982.90727   -2926097.3    23917.832   -2902179.4    258920.42    1.1627982    49.661454    49.661454    104.98504 
   18100    26753    303.25878    1010.5997   -2926099.3    24182.653   -2901916.6    259039.45    1.1622639    49.666927    49.666927    105.01016 
   18200    26753    300.36488    320.02698   -2926026.4    23951.886   -2902074.5    259064.77    1.1621504    49.663415    49.663415    105.03528 
   18300    26753    300.97053   -1765.9846   -2926271.3    24000.181   -2902271.2    258837.89     1.163169     49.63573     49.63573    105.06039 
   18400    26753    298.85524   -2829.9295   -2926276.7    23831.503   -2902445.1    258542.88    1.1644962    49.601507    49.601507    105.08551 
   18500    26753    298.77693     693.8441   -2926362.2    23825.258     -2902537    258447.49    1.1649261    49.586431    49.586431    105.11062 
   18600    26753    300.98298   -251.60348   -2926528.3    24001.175   -2902527.1    258513.62    1.1646281     49.58685     49.58685    105.13574 
   18700    26753    302.35802   -793.56537   -2926412.5    24110.824   -2902301.6    258527.09    1.1645674     49.58222     49.58222    105.16086 
   18800    26753    302.10144   -569.18587   -2926278.4    24090.364     -2902188    258511.25    1.1646387    49.574782    49.574782    105.18597 
   18900    26753    300.39848   -757.69645   -2926314.1    23954.565   -2902359.6    258317.41    1.1655127    49.550276    49.550276    105.21109 
   19000    26753    299.99915   -1677.3332   -2926512.4    23922.722   -2902589.6    258249.46    1.1658193    49.537846    49.537846    105.23621 
   19100    26753      298.666     1491.245     -2926379    23816.413   -2902562.6    258655.92    1.1639873      49.5709      49.5709    105.26132 
   19200    26753     297.9062    677.91596   -2926161.8    23755.824   -2902405.9     259064.2    1.1621529     49.60409     49.60409    105.28644 
   19300    26753    299.45558    837.36584   -2926160.9    23879.375   -2902281.5    259056.26    1.1621885    49.597415    49.597415    105.31155 
   19400    26753    300.94991   -3353.5345   -2926318.4    23998.538   -2902319.8     259243.9    1.1613473    49.609458    49.609458    105.33667 
   19500    26753    298.00001   -836.63092   -2926430.3    23763.304     -2902667    258807.33    1.1633064    49.561761    49.561761    105.36179 
   19600    26753    300.33239   -1692.6638     -2926556    23949.295   -2902606.8     258552.1    1.1644547    49.531413    49.531413     105.3869 
   19700    26753    300.30153   -924.61703   -2926365.2    23946.834   -2902418.4    258331.28    1.1654501    49.504358    49.504358    105.41202 
   19800    26753    302.03668   -147.83156   -2926384.3    24085.199   -2902299.1    257999.37    1.1669494    49.466654    49.466654    105.43713 
   19900    26753    301.58172   -239.81986   -2926517.4    24048.919   -2902468.5    257771.75    1.1679799    49.438939    49.438939    105.46225 
   20000    26753    299.97225    -2948.825     -2926595    23920.576   -2902674.5    257778.26    1.1679504    49.433678    49.433678    105.48737 
   20100    26753    299.39039    -1976.949   -2926466.3    23874.177   -2902592.2    257639.03    1.1685815    49.414444    49.414444    105.51248 
   20200    26753    297.85984   -862.08605   -2926190.4    23752.127   -2902438.3    257395.35    1.1696878    49.385192    49.385192     105.5376 
   20300    26753     300.0604   -1851.5722   -2926291.4    23927.606   -2902363.8     257366.7     1.169818    49.376569    49.376569    105.56271 
   20400    26753    300.68702   -1459.8441   -2926443.1    23977.574   -2902465.5    257400.46    1.1696646    49.373934    49.373934    105.58783 
   20500    26753    298.81621   -295.13933   -2926469.8    23828.391   -2902641.4    257493.65    1.1692413    49.376998    49.376998    105.61295 
   20600    26753    297.09863    182.55194   -2926682.6    23691.427   -2902991.2    257901.97    1.1673901    49.410257    49.410257    105.63806 
   20700    26753    299.45149    768.73856   -2926768.5    23879.049   -2902889.5    258081.61    1.1665776    49.421588    49.421588    105.66318 
   20800    26753    297.71574   -953.14022   -2926396.3    23740.636   -2902655.6    258139.35    1.1663166    49.421243    49.421243    105.68829 
   20900    26753    299.04831   -142.50382   -2926376.4    23846.899   -2902529.5    258225.71    1.1659265    49.423637    49.423637    105.71341 
   21000    26753    299.86905    482.86236   -2926441.8    23912.347   -2902529.5    257840.35    1.1676691    49.380879    49.380879    105.73853 
   21100    26753    298.42585    -3279.653   -2926305.2    23797.262     -2902508    257476.55     1.169319     49.34017     49.34017    105.76364 
   21200    26753    301.29224    468.85035   -2926362.4    24025.836   -2902336.6    257399.73    1.1696679    49.326952    49.326952    105.78876 
   21300    26753    302.17021   -2159.9775     -2926315    24095.848   -2902219.1    257495.69     1.169232    49.330291    49.330291    105.81387 
   21400    26753    299.37769   -512.16451   -2926282.9    23873.165   -2902409.7    257572.85    1.1688818    49.331827    49.331827    105.83899 
   21500    26753     299.7141   -311.64123     -2926468    23899.991     -2902568    257741.86    1.1681153    49.342155    49.342155    105.86411 
   21600    26753    299.27685   -945.03689   -2926432.3    23865.123   -2902567.2    257814.46    1.1677864    49.343251    49.343251    105.88922 
   21700    26753    299.74912   -49.065113   -2926363.6    23902.783   -2902460.9    258102.49    1.1664832    49.364952    49.364952    105.91434 
   21800    26753    301.99424     681.1877   -2926162.3    24081.815   -2902080.5    258370.32     1.165274    49.384703    49.384703    105.93945 
   21900    26753    302.81321   -2729.9782   -2926272.9    24147.122   -2902125.8    258580.52    1.1643267    49.398932    49.398932    105.96457 
   22000    26753    299.14661    247.37686   -2926193.4    23854.738   -2902338.6    258721.22    1.1636935    49.406515    49.406515    105.98969 
   22100    26753    300.96535   -2823.8426   -2926424.6    23999.769   -2902424.9     258809.5    1.1632966    49.409089    49.409089     106.0148 
   22200    26753    298.77753   -71.208159   -2926356.1    23825.306   -2902530.8    258716.98    1.1637126    49.394407    49.394407    106.03992 
   22300    26753    299.74789    400.66545   -2926513.9    23902.686   -2902611.3    258613.15    1.1641798    49.378647    49.378647    106.06503 
   22400    26753    297.44774   -141.51765   -2926567.2    23719.265   -2902847.9    258558.23    1.1644271    49.367559    49.367559    106.09015 
   22500    26753    297.84455   -2231.9505   -2926578.9    23750.908     -2902828    258455.87    1.1648883    49.351944    49.351944    106.11527 
   22600    26753    298.17138    1903.0377   -2926293.7     23776.97   -2902516.7    258053.62    1.1667041     49.30769     49.30769    106.14038 
   22700    26753    297.84332   -1706.8275   -2926166.6     23750.81   -2902415.8     258217.9    1.1659618    49.317547    49.317547     106.1655 
   22800    26753    301.72576   -793.63632   -2926521.3    24060.406   -2902460.9    258402.73    1.1651278     49.32936     49.32936    106.19061 
   22900    26753    299.49914    425.98975     -2926532     23882.85   -2902649.2    258657.87    1.1639785    49.347872    49.347872    106.21573 
   23000    26753    298.75014   -1748.0272   -2926487.3    23823.122   -2902664.1    258913.05    1.1628313    49.366372    49.366372    106.24085 
   23100    26753    299.56524   -1311.1661   -2926291.8     23888.12   -2902403.6    259019.86    1.1623518    49.370718    49.370718    106.26596 
   23200    26753     301.6154    6.8586147   -2926246.3    24051.606   -2902194.7    259253.32    1.1613051    49.387126    49.387126    106.29108 
   23300    26753    303.62533    159.66121   -2926440.1    24211.883   -2902228.2    259485.54    1.1602659    49.403403    49.403403    106.31619 
   23400    26753    303.06544   -314.85817   -2926618.9    24167.235   -2902451.6    259416.85    1.1605731     49.39103     49.39103    106.34131 
   23500    26753    300.42595    339.33221   -2926534.6    23956.755   -2902577.9    259352.34    1.1608617    49.379058    49.379058    106.36643 
   23600    26753    300.30471   -345.42977   -2926473.4    23947.088   -2902526.3    259391.91    1.1606847    49.376995    49.376995    106.39154 
   23700    26753    300.09498   -1271.0382   -2926310.1    23930.363   -2902379.8    259688.07     1.159361    49.399345    49.399345    106.41666 
   23800    26753    301.23441    2020.5278   -2926332.7    24021.224   -2902311.5    259683.44    1.1593816    49.393076    49.393076    106.44177 
   23900    26753    301.33143    729.64527   -2926377.8    24028.961   -2902348.9    259418.24    1.1605669    49.362025    49.362025    106.46689 
   24000    26753    299.91035   -8.6168505   -2926413.6    23915.641   -2902497.9    258983.24    1.1625162    49.314805    49.314805    106.49201 
   24100    26753    299.56845    204.03043   -2926523.6    23888.376   -2902635.2    258637.67    1.1640694    49.276083    49.276083    106.51712 
   24200    26753     297.3273   -2147.7763   -2926372.9    23709.661   -2902663.2    258693.91    1.1638164     49.27563     49.27563    106.54224 
   24300    26753    301.24479    219.34935   -2926335.6    24022.052   -2902313.5    258684.64    1.1638581    49.268941    49.268941    106.56736 
   24400    26753     302.9488   -1068.3377   -2926379.9    24157.934   -2902221.9    258761.91    1.1635106    49.270493    49.270493    106.59247 
   24500    26753    300.78928   -693.14265   -2926378.5    23985.728   -2902392.8    259092.08    1.1620279    49.296109    49.296109    106.61759 
   24600    26753    301.16278   -555.89079   -2926563.2    24015.512   -2902547.7    259395.08    1.1606705    49.319117    49.319117     106.6427 
   24700    26753    298.49529   -69.646011   -2926454.5      23802.8   -2902651.7    259590.82    1.1597953    49.331913    49.331913    106.66782 
   24800    26753    299.88784   -1296.5653   -2926466.9    23913.845     -2902553    259442.85    1.1604568    49.312046    49.312046    106.69294 
   24900    26753    297.22739   -1036.6038   -2926158.1    23701.694   -2902456.4    259423.61    1.1605428    49.304414    49.304414    106.71805 
   25000    26753    298.05137      4074.57     -2926145      23767.4   -2902377.6    259588.85    1.1598041    49.314312    49.314312    106.74317 
   25100    26753    302.09311   -1792.4481   -2926392.9    24089.699   -2902303.2    259913.86    1.1583538    49.339369    49.339369    106.76828 
   25200    26753     299.5093    -597.5559   -2926098.6     23883.66   -2902214.9    260041.43    1.1577856    49.345672    49.345672     106.7934 
   25300    26753    300.29082    1663.3292     -2926005     23945.98     -2902059    260117.94     1.157445    49.347128    49.347128    106.81852 
   25400    26753    302.22161   -531.93912     -2926262    24099.946     -2902162    260195.42    1.1571004    49.348676    49.348676    106.84363 
   25500    26753    300.50295    -560.7652     -2926407    23962.896   -2902444.1     260135.8    1.1573656    49.337223    49.337223    106.86875 
   25600    26753    298.44734    758.59428   -2926341.5    23798.976   -2902542.5    260118.96    1.1574405     49.32983     49.32983    106.89386 
   25700    26753    300.62934   -1475.8722   -2926435.9    23972.975   -2902462.9    259985.24    1.1580358    49.311355    49.311355    106.91898 
   25800    26753    299.57703   -2336.4337     -2926163     23889.06   -2902273.9    259933.41    1.1582667     49.30065     49.30065     106.9441 
   25900    26753    303.05053   -2254.6148   -2926252.9    24166.047   -2902086.8    259752.35    1.1590741     49.27769     49.27769    106.96921 
   26000    26753    300.07479   -980.06575   -2926270.8    23928.753   -2902342.1    259706.08    1.1592805    49.267518    49.267518    106.99433 
   26100    26753    297.14782   -1322.0859   -2926240.8    23695.349   -2902545.5    259515.21    1.1601332     49.24363     49.24363    107.01944 
   26200    26753    297.88558   -1023.3368   -2926208.2     23754.18     -2902454    259497.36     1.160213     49.23616     49.23616    107.04456 
   26300    26753    300.19916   -4499.7699   -2926237.2    23938.671   -2902298.5    259513.35    1.1601415    49.231901    49.231901    107.06968 
   26400    26753    302.19939   -138.31085   -2926314.6    24098.174   -2902216.5    259381.56     1.160731    49.213627    49.213627    107.09479 
   26500    26753    300.42483    112.16516   -2926224.1    23956.667   -2902267.4    258948.24    1.1626733    49.166737    49.166737    107.11991 
   26600    26753    301.69461   -1280.8303   -2926567.7    24057.922   -2902509.8    258663.05    1.1639552    49.133895    49.133895    107.14502 
   26700    26753    299.28774     391.4854   -2926430.5    23865.991   -2902564.6    258684.12    1.1638604    49.130138    49.130138    107.17014 
   26800    26753     303.2473    706.80098   -2926552.9    24181.738   -2902371.1    258842.01    1.1631505    49.139371    49.139371    107.19526 
   26900    26753    302.09526   -2116.6277   -2926309.5    24089.871   -2902219.7    259180.58    1.1616311    49.165739    49.165739    107.22037 
   27000    26753    300.85442   -1066.6174   -2926014.9    23990.923     -2902024    259538.63    1.1600285    49.193926    49.193926    107.24549 
   27100    26753    303.06143   -2364.3917   -2926090.3    24166.916   -2901923.4    259838.57    1.1586894    49.216582    49.216582     107.2706 
   27200    26753    302.74707   -2168.2352   -2926358.9    24141.848     -2902217    259852.82    1.1586259     49.21217     49.21217    107.29572 
   27300    26753       300.43   -1484.2244   -2926294.7    23957.079   -2902337.6    259877.95    1.1585139    49.208791    49.208791    107.32084 
   27400    26753    300.22583    419.36363   -2926279.2    23940.797   -2902338.4    260033.18    1.1578223    49.217726    49.217726    107.34595 
   27500    26753    299.21943   -47.115569   -2926327.9    23860.545   -2902467.3    260525.08    1.1556362    49.258494    49.258494    107.37107 
   27600    26753    297.11254   -1452.8856   -2926354.4    23692.535   -2902661.9    260843.78    1.1542242    49.282851    49.282851    107.39618 
   27700    26753    300.19147   -758.45655   -2926494.7    23938.057   -2902556.6    261026.33     1.153417    49.294329    49.294329     107.4213 
   27800    26753    302.01765    1928.6744   -2926298.5    24083.681   -2902214.8    261218.49    1.1525685    49.306706    49.306706    107.44642 
   27900    26753    299.31767    -1505.591   -2926155.3    23868.378   -2902286.9    261140.91     1.152911    49.293622    49.293622    107.47153 
   28000    26753    300.60449    991.80301     -2926398    23970.993     -2902427    260837.89    1.1542503    49.259259    49.259259    107.49665 
   28100    26753    298.46264   -1163.0298   -2926383.7    23800.196   -2902583.5    260756.96    1.1546086    49.245864    49.245864    107.52176 
   28200    26753    299.08325   -1693.7328   -2926420.2    23849.685   -2902570.5    260705.08    1.1548383    49.235215    49.235215    107.54688 
   28300    26753    301.76894    1469.4175   -2926262.3    24063.849   -2902198.4    260529.22    1.1556178     49.21286     49.21286      107.572 
   28400    26753    302.14552   -1375.7699   -2926297.4    24093.879   -2902203.5    260521.29     1.155653    49.206367    49.206367    107.59711 
   28500    26753    300.10024   -1753.9962   -2926293.2    23930.782   -2902362.4    260420.01    1.1561024    49.191061    49.191061    107.62223 
   28600    26753    298.18014    709.73357   -2926275.9    23777.669   -2902498.3    260209.73    1.1570367     49.16546     49.16546    107.64734 
   28700    26753    300.03491   -2210.5848   -2926390.1    23925.573   -2902464.5    260338.87    1.1564628    49.171922    49.171922    107.67246 
   28800    26753      301.335    55.122378   -2926093.8    24029.246   -2902064.6    260175.78    1.1571877    49.150786    49.150786    107.69758 
   28900    26753    303.07571    2113.7591   -2926180.4    24168.054   -2902012.4    259945.01     1.158215    49.123256    49.123256    107.72269 
   29000    26753    303.10744   -590.79884     -2926381    24170.585   -2902210.4    259875.99    1.1585226    49.111009    49.111009    107.74781 
   29100    26753    299.69117   -1442.2858   -2926307.2    23898.162     -2902409    259856.47    1.1586096    49.103442    49.103442    107.77293 
   29200    26753     300.7241   -1386.9459   -2926408.5    23980.531   -2902427.9    260151.06    1.1572977    49.125543    49.125543    107.79804 
   29300    26753    299.48336   -609.46455   -2926199.5    23881.591   -2902317.9     260429.9    1.1560585    49.146139    49.146139    107.82316 
   29400    26753    301.35389   -3153.8275   -2926033.6    24030.752   -2902002.8    260569.27    1.1554402    49.153563    49.153563    107.84827 
   29500    26753    300.37719   -2295.4432   -2925907.8    23952.867   -2901954.9    260551.41    1.1555194    49.146155    49.146155    107.87339 
   29600    26753    300.14289    317.22912   -2926010.3    23934.183   -2902076.1    260340.03    1.1564576    49.120498    49.120498    107.89851 
   29700    26753    299.15182   -1103.7331   -2926025.1    23855.153   -2902169.9    260234.34    1.1569273    49.104811    49.104811    107.92362 
   29800    26753    298.44701   -2957.7962   -2926054.6     23798.95   -2902255.7    260241.67    1.1568947     49.09979     49.09979    107.94874 
   29900    26753    298.51469    762.59528   -2926134.5    23804.347   -2902330.1     260123.4    1.1574207    49.082922    49.082922    107.97385 
   30000    26753    299.91486    -351.5853   -2926347.1    23915.999   -2902431.1    260024.48     1.157861    49.067882    49.067882    107.99897 
   30100    26753    297.51665   -276.49077   -2926372.9     23724.76   -2902648.2    260059.03    1.1577072    49.065437    49.065437    108.02409 
   30200    26753    299.61623    125.75063   -2926488.4    23892.186   -2902596.2    260179.44    1.1571714     49.07109     49.07109     108.0492 
   30300    26753    302.06886   -5910.7001   -2926380.2    24087.765   -2902292.5    260419.56    1.1561044    49.088024    49.088024    108.07432 
   30400    26753     300.4024   -501.80103     -2926197    23954.878   -2902242.2     260522.1    1.1556494    49.091983    49.091983    108.09943 
   30500    26753    301.65782   -858.45162   -2926289.3    24054.988   -2902234.4    260675.28    1.1549703    49.100709    49.100709    108.12455 
   30600    26753    300.40914   -1821.4536   -2926287.4    23955.415     -2902332    260825.11    1.1543069    49.109115    49.109115    108.14967 
   30700    26753    295.90211    45.434492   -2926189.4    23596.013   -2902593.4     260951.3    1.1537486    49.115291    49.115291    108.17478 
   30800    26753    297.25582   -1436.9278   -2926193.7    23703.961   -2902489.7    260913.54    1.1539156    49.106037    49.106037     108.1999 
   30900    26753     298.9373   -234.13238   -2926146.8    23838.047   -2902308.7    260975.69    1.1536408    49.106186    49.106186    108.22501 
   31000    26753    298.41541   -1953.7365   -2926055.2     23796.43   -2902258.8    261157.06    1.1528397    49.117547    49.117547    108.25013 
   31100    26753    299.10513   -4572.5966   -2926123.9     23851.43   -2902272.4     261224.5     1.152542    49.118191    49.118191    108.27525 
   31200    26753    299.02608   -821.49208   -2926167.4    23845.126   -2902322.2    261174.14    1.1527643     49.10776     49.10776    108.30036 
   31300    26753    298.48702    455.30401   -2926205.4     23802.14   -2902403.3     261184.8    1.1527172    49.103069    49.103069    108.32548 
   31400    26753    300.00242   -2491.6835   -2926273.3    23922.982   -2902350.3    261047.26    1.1533246    49.084449    49.084449    108.35059 
   31500    26753    300.90777     1694.111   -2926202.6    23995.177   -2902207.4    260956.13    1.1537273    49.070194    49.070194    108.37571 
   31600    26753    300.89714   -678.22038   -2926059.1     23994.33   -2902064.8    261007.77    1.1534991    49.069363    49.069363    108.40083 
   31700    26753    300.25812   -3917.9749   -2926053.7    23943.372   -2902110.3    261185.84    1.1527126    49.080413    49.080413    108.42594 
   31800    26753    299.57277   -1191.7223   -2926249.8    23888.721   -2902361.1    261446.32    1.1515642    49.099195    49.099195    108.45106 
   31900    26753    299.94046   -390.33198     -2926400    23918.042   -2902481.9    261608.37    1.1508508    49.108723    49.108723    108.47617 
   32000    26753    300.72515   -155.35354   -2926395.1    23980.614   -2902414.5    261618.57    1.1508059    49.103996    49.103996    108.50129 
   32100    26753    300.62372   -972.25545   -2926152.2    23972.526   -2902179.6    261788.76    1.1500578     49.11428     49.11428    108.52641 
   32200    26753    301.41743   -552.49962   -2925972.2    24035.819   -2901936.4     261822.7    1.1499087    49.111782    49.111782    108.55152 
   32300    26753     301.7098    1209.1767   -2926067.2    24059.133   -2902008.1    261830.56    1.1498742    49.106838    49.106838    108.57664 
   32400    26753    300.32867   -710.09724   -2926133.2    23948.998   -2902184.2    261689.12    1.1504957    49.087895    49.087895    108.60175 
   32500    26753    300.27805   -859.89064   -2926216.7    23944.962   -2902271.8    261622.41    1.1507891    49.075963    49.075963    108.62687 
   32600    26753    297.84973    -352.8825   -2926080.3    23751.321   -2902328.9    261427.07    1.1516489    49.051969    49.051969    108.65199 
   32700    26753    299.76484   -1149.9605   -2926158.4    23904.037   -2902254.4    261141.91    1.1529065    49.019543    49.019543     108.6771 
   32800    26753    302.96834    1425.3914   -2926151.8    24159.493   -2901992.3    260962.61    1.1536987    48.997051    48.997051    108.70222 
   32900    26753    301.18161    -1364.651   -2925894.2    24017.014   -2901877.1    261266.48    1.1523568    49.019907    49.019907    108.72733 
   33000    26753    300.63993    581.00837     -2926118    23973.819   -2902144.2    261429.47    1.1516384    49.029532    49.029532    108.75245 
   33100    26753    300.47697     962.3452   -2926223.9    23960.824   -2902263.1    261476.85    1.1514297    49.028313    49.028313    108.77757 
   33200    26753    300.88795   -864.68721   -2926295.3    23993.596   -2902301.7    261525.36    1.1512161    49.027201    49.027201    108.80268 
   33300    26753    299.74983   -2875.3473   -2926301.3     23902.84   -2902398.5    261707.35    1.1504156    49.038597    49.038597     108.8278 
   33400    26753    300.05542   -1668.2345   -2926317.9    23927.209   -2902390.7    261874.84    1.1496798    49.048627    49.048627    108.85291 
   33500    26753    302.52706   -284.47561   -2926251.5    24124.303   -2902127.2    262000.54    1.1491282    49.054739    49.054739    108.87803 
   33600    26753    303.38065   -1326.2302   -2926202.6    24192.371   -2902010.2    261945.59    1.1493693    49.043937    49.043937    108.90315 
   33700    26753    300.36453   -463.26045   -2926140.7    23951.858   -2902188.8    261981.23    1.1492129    49.041619    49.041619    108.92826 
   33800    26753    299.94474    -1350.353   -2926262.2    23918.383   -2902343.8    261822.64     1.149909    49.021122    49.021122    108.95338 
   33900    26753    301.85684    73.133238     -2926385    24070.858   -2902314.1    261520.39     1.151238    48.987173    48.987173    108.97849 
   34000    26753    300.29304    1130.2692   -2926215.3    23946.157   -2902269.2    261531.94    1.1511871    48.982611    48.982611    109.00361 
   34100    26753    300.65115    1448.7786   -2926185.2    23974.714   -2902210.5    261726.83      1.15033    48.995213    48.995213    109.02873 
   34200    26753    299.78525    -2237.886   -2926089.8    23905.664   -2902184.2    261884.93    1.1496355    49.004365    49.004365    109.05384 
   34300    26753    298.41667     1262.307     -2926092     23796.53   -2902295.5    261982.78    1.1492061    49.007876    49.007876    109.07896 
   34400    26753    297.84217    787.64181   -2926132.2    23750.718   -2902381.4    262255.72    1.1480101    49.027754    49.027754    109.10408 
   34500    26753    300.35699    575.63313   -2926187.7    23951.257   -2902236.5    262127.75    1.1485705     49.01015     49.01015    109.12919 
   34600    26753    301.17878    -547.5566     -2926010    24016.788   -2901993.2     261874.3    1.1496822    48.980814    48.980814    109.15431 
   34700    26753      302.199    475.62252   -2926180.2    24098.143   -2902082.1    261528.72    1.1512013    48.942854    48.942854    109.17942 
   34800    26753    300.50414    156.37863   -2926181.9     23962.99   -2902218.9    261422.95    1.1516671    48.927329    48.927329    109.20454 
   34900    26753     301.8098   -407.24249   -2926294.1    24067.107     -2902227    261453.26    1.1515336     48.92454     48.92454    109.22966 
   35000    26753    300.69728   -1216.3112   -2926212.2    23978.392   -2902233.8    261570.56    1.1510172    48.929888    48.929888    109.25477 
   35100    26753     302.4626   -1123.5606     -2926332    24119.163   -2902212.9     261942.2    1.1493841    48.959009    48.959009    109.27989 
   35200    26753      299.383   -1023.1221   -2926087.5    23873.588   -2902213.9     262217.4    1.1481779    48.979092    48.979092      109.305 
   35300    26753    300.64633   -586.23328   -2926101.5    23974.329   -2902127.2    262366.25    1.1475265    48.987364    48.987364    109.33012 
   35400    26753    298.76334   -36.839391   -2925804.8    23824.175   -2901980.6    262400.02    1.1473788    48.984891    48.984891    109.35524 
   35500    26753    301.66934   -2465.0547   -2925898.3    24055.907   -2901842.4    262575.68    1.1466112    48.995658    48.995658    109.38035 
   35600    26753    300.88048    -856.8839   -2925930.8    23993.001   -2901937.8    262596.37    1.1465208    48.991964    48.991964    109.40547 
   35700    26753    296.33841     568.5344   -2925847.5    23630.804   -2902216.7    262550.34    1.1467219    48.982047    48.982047    109.43058 
   35800    26753    299.25534    1626.7839   -2926040.8    23863.408   -2902177.4     262472.4    1.1470624    48.969157    48.969157     109.4557 
   35900    26753    301.05724      -729.43     -2926064    24007.096   -2902056.9    262737.69    1.1459041    48.988279    48.988279    109.48082 
   36000    26753    301.92546   -1445.3088   -2926032.4     24076.33   -2901956.1    262702.88     1.146056    48.979415    48.979415    109.50593 
   36100    26753    300.00886    -806.0747   -2925799.3    23923.496   -2901875.8     262715.6    1.1460005    48.974985    48.974985    109.53105 
   36200    26753    301.29293   -1315.2422   -2925903.2    24025.891   -2901877.3    262795.45    1.1456523    48.976812    48.976812    109.55616 
   36300    26753    299.64888    -267.8698   -2926020.1     23894.79   -2902125.3    262807.75    1.1455987    48.972345    48.972345    109.58128 
   36400    26753    299.20888   -1391.7877   -2926073.7    23859.703     -2902214    262624.77    1.1463969    48.949684    48.949684     109.6064 
   36500    26753    300.17382   -324.92545   -2926061.4     23936.65   -2902124.7     262347.6     1.147608    48.918242    48.918242    109.63151 
   36600    26753    302.55839   -940.64828   -2926047.2    24126.802   -2901920.4    262408.56    1.1473414    48.918322    48.918322    109.65663 
   36700    26753    299.41551    2299.1885   -2925750.3     23876.18   -2901874.1    262438.48    1.1472106    48.915509    48.915509    109.68174 
   36800    26753    299.36203    -402.5155   -2926060.5    23871.916   -2902188.6    262537.13    1.1467795    48.919102    48.919102    109.70686 
   36900    26753    298.86168   -136.91877   -2926159.6    23832.016   -2902327.6    262412.49    1.1473242    48.901891    48.901891    109.73198 
   37000    26753    297.20048    -860.7097   -2925917.5    23699.548     -2902218    262468.84    1.1470779    48.901545    48.901545    109.75709 
   37100    26753    300.10878   -370.62044   -2925913.7    23931.464   -2901982.2    262581.66    1.1465851    48.906458    48.906458    109.78221 
   37200    26753    300.02055   -2475.7856   -2925867.7    23924.428   -2901943.3    262479.39    1.1470318    48.891341    48.891341    109.80732 
   37300    26753    300.93103   -1960.4594   -2926039.8    23997.032   -2902042.7    262416.51    1.1473066    48.879895    48.879895    109.83244 
   37400    26753      300.643   -2295.1133   -2926066.4    23974.063   -2902092.3    262348.08    1.1476059    48.867934    48.867934    109.85756 
   37500    26753    300.21007   -402.80063   -2926104.8     23939.54   -2902165.3    262160.03    1.1484291    48.844833    48.844833    109.88267 
   37600    26753     298.5017   -123.18436   -2926010.9    23803.311   -2902207.6    261998.74    1.1491361    48.824226    48.824226    109.90779 
   37700    26753    299.01763   -3733.3061   -2926133.3    23844.452   -2902288.9    262071.46    1.1488172    48.825423    48.825423     109.9329 
   37800    26753    297.81135   -445.06635   -2926243.3    23748.261   -2902495.1    261943.03    1.1493805    48.807883    48.807883    109.95802 
   37900    26753    298.88283    -2251.643   -2926371.1    23833.703   -2902537.4    261987.92    1.1491836    48.806491    48.806491    109.98314 
   38000    26753    300.05495   -1151.0171   -2926200.2    23927.171   -2902273.1     262172.3    1.1483754    48.818088    48.818088    110.00825 
   38100    26753    300.93768   -1972.9966   -2926118.8    23997.562   -2902121.2    262706.71    1.1460393    48.862241    48.862241    110.03337 
   38200    26753     300.5887   -1751.5507   -2926092.2    23969.734   -2902122.4     262891.8    1.1452324    48.873873    48.873873    110.05848 
   38300    26753    300.67595    -1027.781   -2926185.7    23976.691     -2902209    262952.49    1.1449681    48.873938    48.873938     110.0836 
   38400    26753     297.8527   -3578.6217   -2926132.2    23751.558   -2902380.7    262947.75    1.1449887    48.867923    48.867923    110.10872 
   38500    26753    297.08276   -336.04528   -2926279.5    23690.161   -2902589.4    262722.03    1.1459725    48.841373    48.841373    110.13383 
   38600    26753     299.0289   -930.79802   -2926294.8    23845.351   -2902449.5    262806.74    1.1456031    48.843678    48.843678    110.15895 
   38700    26753    302.01506   -1893.4787   -2926249.7    24083.475   -2902166.3    262840.28    1.1454569    48.841227    48.841227    110.18406 
   38800    26753    299.76606   -1959.5746   -2925955.9    23904.134   -2902051.7    262772.29    1.1457533    48.829345    48.829345    110.20918 
   38900    26753    300.28103   -1413.1767   -2925906.9    23945.199   -2901961.7    262513.84    1.1468813    48.799766    48.799766     110.2343 
   39000    26753    300.59627   -788.25803   -2926002.1    23970.337   -2902031.7    262582.45    1.1465816    48.800583    48.800583    110.25941 
   39100    26753    297.27504   -3718.4667     -2925989    23705.494   -2902283.5    262770.84    1.1457596    48.812527    48.812527    110.28453 
   39200    26753    299.84361    2090.5762   -2926176.1    23910.318   -2902265.8    262566.08    1.1466531     48.78795     48.78795    110.30965 
   39300    26753    300.81793   -612.85935   -2926069.2    23988.013   -2902081.2    262625.09    1.1463955    48.787878    48.787878    110.33476 
   39400    26753    300.27415   -2129.5926   -2925902.8     23944.65   -2901958.2    262726.31    1.1459538    48.791725    48.791725    110.35988 
   39500    26753     301.1138    942.48817   -2925931.2    24011.606   -2901919.6    262571.38    1.1466299    48.771788    48.771788    110.38499 
   39600    26753    300.15202    -1374.737   -2925901.1    23934.911   -2901966.2    262591.88    1.1465404    48.768144    48.768144    110.41011 
   39700    26753    300.85476    115.82191   -2926094.4     23990.95   -2902103.4    262670.31    1.1461981     48.76988     48.76988    110.43523 
   39800    26753    298.33436   -2141.2468   -2926094.6    23789.966   -2902304.7    262939.39    1.1450251    48.789306    48.789306    110.46034 
   39900    26753    297.73118    -1393.034   -2925953.7    23741.867   -2902211.9    263080.31    1.1444118     48.79683     48.79683    110.48546 
   40000    26753    300.41248    -1088.444     -2925931    23955.681   -2901975.3    263434.26    1.1428742    48.824096    48.824096    110.51057 
   40100    26753    300.62674    846.88926   -2925954.7    23972.767   -2901981.9    263429.91     1.142893    48.818146    48.818146    110.53569 
   40200    26753    301.24971    811.02875   -2926008.4    24022.444   -2901985.9    263361.16    1.1431914     48.80623     48.80623    110.56081 
   40300    26753    300.99762   -1390.0336   -2926004.9    24002.342   -2902002.6    263228.06    1.1437694    48.788355    48.788355    110.58592 
   40400    26753    299.28905    316.02033   -2926102.4    23866.096   -2902236.3    263239.12    1.1437214     48.78384     48.78384    110.61104 
   40500    26753    299.10091   -1846.3229   -2926202.3    23851.093   -2902351.2    263268.79    1.1435925    48.781051    48.781051    110.63615 
   40600    26753      299.897   -1671.4242   -2926075.1    23914.576   -2902160.5     263038.8    1.1445924    48.754205    48.754205    110.66127 
   40700    26753    301.19733     1023.543   -2926057.1    24018.268   -2902038.8    262962.31    1.1449253    48.741586    48.741586    110.68639 
   40800    26753    296.48182   -662.57196   -2925719.1     23642.24   -2902076.9    262951.26    1.1449734    48.735033    48.735033     110.7115 
   40900    26753    300.33251   -485.89262   -2926102.6    23949.304   -2902153.3    262781.87    1.1457115    48.713807    48.713807    110.73662 
   41000    26753    298.55569   -1570.4448   -2926056.1    23807.616   -2902248.5    262595.59    1.1465243    48.691016    48.691016    110.76173 
   41100    26753    297.66917   -696.98072   -2926019.7    23736.923   -2902282.8    262777.91    1.1457288    48.702395    48.702395    110.78685 
   41200    26753    299.07794   -2693.0489   -2926003.4    23849.261   -2902154.2    263048.77     1.144549    48.721966    48.721966    110.81197 
   41300    26753    301.22976   -1141.4109   -2925930.1    24020.854   -2901909.2    263354.58      1.14322    48.744756    48.744756    110.83708 
   41400    26753    299.47287     -1398.67   -2925729.5    23880.755   -2901848.8    263759.35    1.1414655    48.776675    48.776675     110.8622 
   41500    26753     300.3318    753.25212   -2925875.3    23949.248     -2901926    263714.66     1.141659    48.767018    48.767018    110.88731 
   41600    26753    296.97339   -1582.1173   -2925899.1    23681.439   -2902217.7    263243.73    1.1437014    48.717939    48.717939    110.91243 
   41700    26753    296.95751     839.7028   -2926066.7    23680.173   -2902386.6     263136.1    1.1441692    48.702464    48.702464    110.93755 
   41800    26753    298.70588   -2611.4239   -2926125.7    23819.593   -2902306.1    263232.58    1.1437498    48.705879    48.705879    110.96266 
   41900    26753    297.18875   -527.99441     -2925878    23698.612   -2902179.4    263168.63    1.1440277    48.694452    48.694452    110.98778 
   42000    26753    302.55889   -2086.0413   -2926109.5    24126.842   -2901982.6    263064.66    1.1444799    48.679324    48.679324    111.01289 
   42100    26753    302.01476    505.46132   -2926095.4    24083.451   -2902011.9    263094.17    1.1443515    48.676549    48.676549    111.03801 
   42200    26753    298.40362   -2526.5488   -2925931.6    23795.489   -2902136.1    263116.19    1.1442557    48.673081    48.673081    111.06313 
   42300    26753    300.32051   -247.83848     -2926063    23948.348   -2902114.7    263178.97    1.1439828    48.673385    48.673385    111.08824 
   42400    26753    300.93754   -755.50334   -2926159.6    23997.551     -2902162    263267.77    1.1435969    48.676093    48.676093    111.11336 
   42500    26753    297.27335   -3753.1658   -2926024.9    23705.359   -2902319.6    263224.57    1.1437846    48.666599    48.666599    111.13847 
   42600    26753    299.05161    528.90971   -2926133.3    23847.162   -2902286.1    263258.83    1.1436358    48.664267    48.664267    111.16359 
   42700    26753    300.04717   -1198.7934   -2925866.2     23926.55   -2901939.6    263251.58    1.1436672    48.658101    48.658101    111.18871 
   42800    26753    300.08222   -1001.4753     -2925778    23929.346   -2901848.7    263027.43    1.1446419    48.631889    48.631889    111.21382 
   42900    26753    299.06402   -2459.5078   -2925805.9    23848.152   -2901957.8     263129.1    1.1441996    48.635796    48.635796    111.23894 
   43000    26753    296.80303   -1011.7317   -2925834.9    23667.854     -2902167    263024.43    1.1446549    48.620632    48.620632    111.26405 
   43100    26753    299.70312    1167.4999   -2926101.6    23899.115   -2902202.5    262585.28    1.1465693    48.574544    48.574544    111.28917 
   43200    26753    297.72601   -1410.0499   -2925906.4    23741.456   -2902164.9    262750.56     1.145848    48.584348    48.584348    111.31429 
   43300    26753    301.90399    629.56267   -2925863.4    24074.619   -2901788.8    262982.38     1.144838    48.600292    48.600292     111.3394 
   43400    26753    300.89868    203.36597   -2925863.5    23994.452   -2901869.1    262923.73    1.1450933    48.589393    48.589393    111.36452 
   43500    26753    299.74224    1248.9807   -2926012.7    23902.235   -2902110.5    262998.25    1.1447689    48.590799    48.590799    111.38963 
   43600    26753    298.79097   -2486.9453   -2926014.4    23826.378     -2902188    263408.73    1.1429849    48.623222    48.623222    111.41475 
   43700    26753    298.64452   -2586.9982   -2925885.6    23814.699   -2902070.9    263769.43    1.1414219    48.651019    48.651019    111.43987 
   43800    26753    302.39404   -279.64858   -2926002.7    24113.696     -2901889    263772.66     1.141408    48.645835    48.645835    111.46498 
   43900    26753    300.58621     971.1685   -2926031.6    23969.535     -2902062    263841.71    1.1411092    48.646721    48.646721     111.4901 
   44000    26753    300.41901    1814.4597   -2926291.2    23956.202     -2902335     263787.3    1.1413446    48.636227    48.636227    111.51521 
   44100    26753      297.426    -384.8711   -2926069.2    23717.532   -2902351.7    263305.16    1.1434345    48.586288    48.586288    111.54033 
   44200    26753     300.7848    389.48406   -2926212.3    23985.371     -2902227    262991.37    1.1447988    48.551863    48.551863    111.56545 
   44300    26753    302.57558   -1573.9274   -2926137.8    24128.173   -2902009.6    262665.94    1.1462172    48.516353    48.516353    111.59056 
   44400    26753    301.83824   -1213.3635   -2925886.3    24069.375   -2901816.9    262509.78     1.146899    48.496471    48.496471    111.61568 
   44500    26753    302.43219   -2613.5651   -2925937.8    24116.739   -2901821.1    262751.66    1.1458433    48.513351    48.513351     111.6408 
   44600    26753     300.2804   -3462.6678   -2926066.8    23945.149   -2902121.6    262716.49    1.1459966    48.504648    48.504648    111.66591 
   44700    26753    300.33356    768.82166   -2926175.6    23949.388   -2902226.2    262335.29    1.1476619    48.463996    48.463996    111.69103 
   44800    26753    297.64963   -2170.4234   -2925991.8    23735.364   -2902256.5    262539.89    1.1467675    48.477441    48.477441    111.71614 
   44900    26753    299.61566   -620.66083   -2925901.2    23892.141     -2902009    262926.65    1.1450806    48.507682    48.507682    111.74126 
   45000    26753    301.48972   -15.407715   -2925867.7    24041.584   -2901826.1    263317.86    1.1433794    48.538302    48.538302    111.76638 
   45100    26753    300.33921   -1189.4731     -2925804    23949.839   -2901854.2    263448.09    1.1428142    48.544849    48.544849    111.79149 
   45200    26753    301.44318   -664.25455   -2925939.9    24037.872     -2901902    263426.69     1.142907    48.537425    48.537425    111.81661 
   45300    26753    299.88203    583.62572     -2925917    23913.382   -2902003.6    263271.72    1.1435798    48.517697    48.517697    111.84172 
   45400    26753    300.57088    1833.7433   -2926070.5    23968.313   -2902102.2    263308.42    1.1434204    48.515631    48.515631    111.86684 
   45500    26753    300.35089   -1041.0601   -2926106.9     23950.77   -2902156.1    263412.08    1.1429704    48.519734    48.519734    111.89196 
   45600    26753    298.48482   -273.53099   -2926062.7    23801.965   -2902260.7    263599.75    1.1421567    48.531569    48.531569    111.91707 
   45700    26753    297.60612   -413.37541   -2926196.3    23731.895   -2902464.4    263802.19    1.1412802    48.544754    48.544754    111.94219 
   45800    26753    299.70934   -1594.9862   -2926250.1    23899.611   -2902350.5    263994.03    1.1404508    48.556955    48.556955     111.9673 
   45900    26753    300.36883   -2061.6556   -2926085.6    23952.201   -2902133.4    264108.34    1.1399572     48.56202     48.56202    111.99242 
   46000    26753    302.28054   -676.54628   -2926082.9    24104.646   -2901978.2     263941.8    1.1406765    48.541263    48.541263    112.01754 
   46100    26753    300.24355   -1724.3223   -2925880.4     23942.21   -2901938.2    263991.76    1.1404607    48.540416    48.540416    112.04265 
   46200    26753    302.62848   -1747.1612   -2926122.1    24132.391   -2901989.7    264157.68    1.1397443    48.550227    48.550227    112.06777 
   46300    26753    298.75941   -3039.8949   -2926189.6    23823.861   -2902365.7    264357.33    1.1388836    48.563128    48.563128    112.09288 
   46400    26753    298.24815    453.50216   -2926107.5    23783.092   -2902324.4    264373.08    1.1388157    48.559135    48.559135      112.118 
   46500    26753     301.2224    268.38794   -2926083.3    24020.267     -2902063    264130.22    1.1398628    48.531391    48.531391    112.14312 
   46600    26753     302.0672   -777.57813     -2926041    24087.633   -2901953.4    263960.06    1.1405976    48.510324    48.510324    112.16823 
   46700    26753    298.82439    1943.9967     -2925879    23829.043     -2902050    263884.88    1.1409225    48.497986    48.497986    112.19335 
   46800    26753    299.67531   -1543.7449   -2926135.6    23896.898   -2902238.7     263700.2    1.1417216    48.475586    48.475586    112.21846 
   46900    26753    299.93944   -1288.4013   -2926336.6     23917.96   -2902418.7    263605.22    1.1421329    48.461433    48.461433    112.24358 
   47000    26753    300.24057    86.813802     -2926220    23941.972     -2902278     263549.5    1.1423745     48.45089     48.45089     112.2687 
   47100    26753    300.65689   -1057.1833   -2925966.5    23975.171   -2901991.3    263811.93     1.141238    48.469585    48.469585    112.29381 
   47200    26753    299.88476   -3615.4637   -2925866.6      23913.6     -2901953    264165.67    1.1397098    48.496647    48.496647    112.31893 
   47300    26753    298.08759   -3435.3447   -2925789.1    23770.289   -2902018.8    264434.37    1.1385517    48.515882    48.515882    112.34404 
   47400    26753    298.47862   -1446.9264   -2925909.1     23801.47   -2902107.7    264459.29    1.1384444    48.512745    48.512745    112.36916 
   47500    26753    298.71284   -2571.1153   -2925985.9    23820.148   -2902165.7    264560.67    1.1380082    48.516621    48.516621    112.39428 
   47600    26753    300.36961   -687.28899   -2926051.3    23952.263     -2902099    264522.12    1.1381741    48.507666    48.507666    112.41939 
   47700    26753    302.74247   -1950.2934   -2926030.5    24141.481     -2901889    264555.94    1.1380285    48.505349    48.505349    112.44451 
   47800    26753    299.32852    1640.7235   -2925752.9    23869.244   -2901883.6    264526.03    1.1381572    48.497191    48.497191    112.46962 
   47900    26753    299.97425   -1714.5271   -2925965.7    23920.736     -2902045    264284.01    1.1391995    48.469589    48.469589    112.49474 
   48000    26753    297.67535    500.24825   -2926042.1    23737.415   -2902304.7    264105.42    1.1399698    48.447801    48.447801    112.51986 
   48100    26753    298.44294   -1876.6574   -2926078.6    23798.625     -2902280    264226.76    1.1394463    48.453522    48.453522    112.54497 
   48200    26753    300.30162   -1443.2696   -2926047.3    23946.841   -2902100.4    264098.59    1.1399993    48.436364    48.436364    112.57009 
   48300    26753    300.31316   -2963.8313   -2925981.6    23947.761   -2902033.8     264046.8    1.1402229    48.426212    48.426212     112.5952 
   48400    26753    300.14903    705.11973   -2925988.9    23934.673   -2902054.2    264266.07    1.1392768    48.440913    48.440913    112.62032 
   48500    26753    299.61002   -980.57995   -2925981.2    23891.691   -2902089.5    264202.03     1.139553    48.429644    48.429644    112.64544 
   48600    26753    300.53682   -1704.4549   -2926072.1    23965.597   -2902106.5    263968.21    1.1405624    48.402813    48.402813    112.67055 
   48700    26753    300.21662    626.66589     -2926047    23940.063   -2902106.9       264051    1.1402048    48.405008    48.405008    112.69567 
   48800    26753    297.77096   -998.46994   -2925846.8     23745.04   -2902101.7    264458.95    1.1384459    48.436989    48.436989    112.72078 
   48900    26753    301.27829   -534.32858   -2926013.4    24024.723   -2901988.6    264777.24    1.1370774     48.46073     48.46073     112.7459 
   49000    26753    301.09088    733.75425   -2925888.9    24009.779   -2901879.1    264770.08    1.1371081    48.454678    48.454678    112.77102 
   49100    26753    300.21172   -745.85189   -2925790.6    23939.672   -2901850.9    264834.13    1.1368331    48.455142    48.455142    112.79613 
   49200    26753    298.44524   -821.11052   -2925816.2    23798.808   -2902017.4    264801.88    1.1369716    48.446798    48.446798    112.82125 
   49300    26753    298.83571   -2273.1658   -2926054.9    23829.946     -2902225    264754.93    1.1371732    48.437112    48.437112    112.84637 
   49400    26753    297.12391    -896.7186   -2926008.4    23693.443     -2902315    265020.64    1.1360331     48.45602     48.45602    112.87148 
   49500    26753    301.31372   -373.87247   -2926101.7    24027.548   -2902074.2    264930.35    1.1364202    48.442376    48.442376     112.8966 
   49600    26753    299.92967   -1945.6753   -2925778.6    23917.181   -2901861.4    264667.11    1.1375505    48.412918    48.412918    112.92171 
   49700    26753    301.50923   -1656.4691   -2925930.3    24043.139   -2901887.2    264886.61    1.1366079    48.427604    48.427604    112.94683 
   49800    26753    300.34891   -1061.7557   -2925990.4    23950.612   -2902039.8    265236.91    1.1351068    48.454227    48.454227    112.97195 
   49900    26753    299.02764   -3263.7673   -2925982.2    23845.251   -2902136.9    265188.14    1.1353155    48.444388    48.444388    112.99706 
   50000    26753    299.05405    314.43985   -2926016.3    23847.356   -2902168.9    264975.89    1.1362249    48.419617    48.419617    113.02218 
   50100    26753    302.17931   -554.55985     -2926060    24096.573   -2901963.5    264952.41    1.1363256    48.412093    48.412093    113.04729 
   50200    26753    299.34946   -680.52185   -2925681.3    23870.913   -2901810.4    264868.93    1.1366838    48.399088    48.399088    113.07241 
   50300    26753    301.70985   -2793.2392   -2925950.7    24059.137   -2901891.6    265038.92    1.1359547    48.409242    48.409242    113.09753 
   50400    26753     300.7213   -2158.9127   -2926112.5    23980.307   -2902132.2     265265.8    1.1349831     48.42458     48.42458    113.12264 
   50500    26753    299.63775   -96.087073   -2926065.1    23893.903   -2902171.2    265241.79    1.1350859    48.417013    48.417013    113.14776 
   50600    26753    300.02522   -976.47947   -2925992.2      23924.8   -2902067.4     265164.1    1.1354185     48.40455     48.40455    113.17287 
   50700    26753    300.15433   -2674.0891   -2925950.3    23935.096   -2902015.2       265261    1.1350037    48.408023    48.408023    113.19799 
   50800    26753     301.4585   -2280.9869   -2925958.3    24039.094   -2901919.2    265428.09    1.1342892    48.417896    48.417896    113.22311 
   50900    26753    300.40931   -1760.8186   -2925858.5    23955.429     -2901903     265375.6    1.1345135    48.407739    48.407739    113.24822 
   51000    26753    299.42661    584.22507   -2925787.2    23877.065   -2901910.1     265055.3    1.1358845    48.373153    48.373153    113.27334 
   51100    26753    300.65378   -1846.9151   -2925970.9    23974.924     -2901996     264826.7     1.136865    48.346929    48.346929    113.29845 
   51200    26753    299.25262   -3109.6128   -2926071.4    23863.191   -2902208.3    264703.99    1.1373921     48.33037     48.33037    113.32357 
   51300    26753    296.88648    -3715.688   -2925954.3    23674.509   -2902279.8     264659.7    1.1375824    48.320972    48.320972    113.34869 
   51400    26753    300.79328   -938.00763   -2925946.2    23986.048   -2901960.2     264569.6    1.1379698    48.307395    48.307395     113.3738 
[...]
  587600    26753    299.45625   -871.75176   -2927560.9    23879.429   -2903681.4    592354.77   0.50826333    48.868029    48.868029    248.04601 
  587700    26753    298.53601   -443.00194     -2927463    23806.047   -2903656.9     592827.6   0.50785795    48.885054    48.885054    248.07112 
  587800    26753    300.17336    239.48054   -2927495.2    23936.613   -2903558.6    593611.06   0.50718767     48.91487     48.91487    248.09624 
  587900    26753    300.62311     810.0285     -2927375    23972.478   -2903402.5    594598.14    0.5063457    48.953044    48.953044    248.12135 
  588000    26753    302.81318   -342.87922   -2927268.9    24147.119   -2903121.7    595574.69   0.50551546    48.990747    48.990747    248.14647 
  588100    26753    302.59375    -920.1768   -2927368.9    24129.621   -2903239.2    595629.05   0.50546932    48.990504    48.990504    248.17159 
  588200    26753      300.982    677.99987   -2927496.7    24001.096   -2903495.6     594593.1      0.50635    48.945405    48.945405     248.1967 
  588300    26753    300.20486   -1099.3115   -2927565.9    23939.125   -2903626.8    594309.32   0.50659178    48.931248    48.931248    248.22182 
  588400    26753    299.25581   -295.50812   -2927556.9    23863.446   -2903693.5     594383.9   0.50652821    48.931843    48.931843    248.24693 
  588500    26753    298.00521    1202.7451   -2927458.1    23763.719   -2903694.4    594288.55   0.50660947    48.925443    48.925443    248.27205 
  588600    26753    301.04563    -394.6032   -2927507.2     24006.17     -2903501    593964.95   0.50688549    48.909647    48.909647    248.29717 
  588700    26753    303.59895   -147.51967   -2927512.2    24209.779   -2903302.4    593477.26   0.50730202    48.887091    48.887091    248.32228 
  588800    26753    300.80411   -630.44938     -2927425    23986.911   -2903438.1    593694.73   0.50711619    48.893575    48.893575     248.3474 
  588900    26753    299.19855    69.128973   -2927502.8    23858.879   -2903643.9    593827.07   0.50700317    48.896552    48.896552    248.37251 
  589000    26753    300.29553   -477.43809   -2927613.1    23946.356   -2903666.8    593841.73   0.50699066    48.894683    48.894683    248.39763 
  589100    26753    299.44896    608.75339   -2927612.1    23878.848   -2903733.3    594278.81   0.50661778    48.910201    48.910201    248.42275 
  589200    26753     300.6229    348.21979     -2927652    23972.461   -2903679.6     594761.9   0.50620628    48.927603    48.927603    248.44786 
  589300    26753    299.47221   -844.98841   -2927406.6    23880.702   -2903525.9    595280.71   0.50576511    48.946464    48.946464    248.47298 
  589400    26753    300.62645   -600.86717   -2927341.5    23972.744   -2903368.8    595215.72   0.50582033    48.941318    48.941318    248.49809 
  589500    26753    301.47751    -697.4366   -2927287.8    24040.609   -2903247.2    594755.41    0.5062118    48.919919    48.919919    248.52321 
  589600    26753    301.09142    15.715333   -2927323.4    24009.822   -2903313.5    594776.34     0.506194    48.918307    48.918307    248.54833 
  589700    26753    301.03947    430.56213   -2927652.4    24005.679   -2903646.7    594740.57   0.50622444    48.914365    48.914365    248.57344 
  589800    26753    300.25152   -296.51072   -2927677.3    23942.846   -2903734.4    594611.36   0.50633445     48.90658     48.90658    248.59856 
  589900    26753    300.99237    216.81396   -2927680.7    24001.923   -2903678.7     594604.6    0.5063402    48.903832    48.903832    248.62367 
  590000    26753    300.27507     477.7719   -2927452.2    23944.724   -2903507.5    594358.68    0.5065497    48.891249    48.891249    248.64879 
  590100    26753    302.62447    837.81733   -2927412.1    24132.072     -2903280    594139.29   0.50673675    48.879756    48.879756    248.67391 
  590200    26753    300.77922     258.4066   -2927273.5    23984.926   -2903288.6    594282.33   0.50661478    48.883171    48.883171    248.69902 
  590300    26753    298.79447    1037.3117   -2927490.2    23826.657   -2903663.5    594464.44   0.50645958    48.888192    48.888192    248.72414 
  590400    26753    299.62395   -624.73293   -2927689.8    23892.802     -2903797    595204.79   0.50582962    48.916155    48.916155    248.74925 
  590500    26753    298.48128   -928.42315   -2927607.6    23801.682   -2903805.9    595565.28   0.50552344    48.928496    48.928496    248.77437 
  590600    26753    299.50436    -416.1659   -2927465.9    23883.266   -2903582.6    595866.66   0.50526776    48.938404    48.938404    248.79949 
  590700    26753     300.5408   -227.86872   -2927393.8    23965.914   -2903427.9    595567.56   0.50552151    48.923651    48.923651     248.8246 
  590800    26753    300.92452   -1129.2262   -2927433.1    23996.513   -2903436.6    594864.18   0.50611925    48.892285    48.892285    248.84972 
  590900    26753    299.87186    989.99794     -2927556    23912.571   -2903643.4    594277.27    0.5066191    48.865694    48.865694    248.87483 
  591000    26753    298.44196    590.66227   -2927660.4    23798.547   -2903861.9    594450.85   0.50647116    48.870364    48.870364    248.89995 
  591100    26753    297.76131   -339.48781   -2927553.7     23744.27   -2903809.5    595027.87   0.50598001     48.89161     48.89161    248.92507 
  591200    26753    299.59303    400.00743   -2927604.8    23890.337   -2903714.4    595503.93   0.50557552    48.908697    48.908697    248.95018 
  591300    26753     300.6223     779.0259   -2927595.7    23972.413   -2903623.3    595967.08   0.50518262    48.925245    48.925245     248.9753 
  591400    26753    300.04985    935.45091   -2927577.6    23926.764   -2903650.8    596045.65   0.50511603    48.926002    48.926002    249.00041 
  591500    26753    296.22062   -17.079425   -2927528.4    23621.411     -2903907    596442.23   0.50478018    48.939807    48.939807    249.02553 
  591600    26753    297.88172   -690.10062   -2927672.3    23753.872   -2903918.5    597197.03   0.50414218    48.968295    48.968295    249.05065 
  591700    26753    298.93608   -325.75495   -2927455.7    23837.949   -2903617.7     597229.4   0.50411486    48.967153    48.967153    249.07576 
  591800    26753    301.62338    197.22322   -2927582.1    24052.241   -2903529.8    596587.75   0.50465705    48.938374    48.938374    249.10088 
  591900    26753     300.1394    645.73268   -2927558.2    23933.906   -2903624.3    596308.98   0.50489297    48.924473    48.924473    249.12599 
  592000    26753    299.42176    141.29406   -2927680.3    23876.679   -2903803.6    596188.17   0.50499528     48.91705     48.91705    249.15111 
  592100    26753    297.85001    289.69432   -2927636.5    23751.343   -2903885.2    596549.22   0.50468964    48.929394    48.929394    249.17623 
  592200    26753    301.54092   -13.261395   -2927684.6    24045.666     -2903639    597342.94   0.50401904    48.959467    48.959467    249.20134 
  592300    26753    301.18932    183.71753   -2927425.5    24017.629   -2903407.8    597935.57   0.50351949    48.981279    48.981279    249.22646 
  592400    26753    299.52424   -141.18227   -2927381.3    23884.851   -2903496.5    597937.02   0.50351826    48.978871    48.978871    249.25157 
  592500    26753    300.47385   -375.38824   -2927549.1    23960.575   -2903588.5    598172.55      0.50332    48.986048    48.986048    249.27669 
  592600    26753    300.43675    475.74775   -2927805.8    23957.617   -2903848.2    598272.63   0.50323581    48.987678    48.987678    249.30181 
  592700    26753    297.71503    929.39063   -2927671.7    23740.579   -2903931.1    598065.73   0.50340991    48.976739    48.976739    249.32692 
  592800    26753    298.37591    1213.2098   -2927601.2     23793.28   -2903807.9    598121.66   0.50336283    48.976563    48.976563    249.35204 
  592900    26753     298.7384   -718.55998   -2927518.3    23822.186   -2903696.1    597902.11   0.50354766    48.965107    48.965107    249.37716 
  593000    26753    300.68409    153.89098   -2927481.6     23977.34   -2903504.3    597357.12   0.50400707    48.940322    48.940322    249.40227 
  593100    26753    301.04889     377.3656     -2927388    24006.431   -2903381.6    597268.98   0.50408145    48.934247    48.934247    249.42739 
  593200    26753    301.40718    257.22237   -2927429.8    24035.001   -2903394.8    597816.36   0.50361989    48.954201    48.954201     249.4525 
  593300    26753    298.64911   -992.49704   -2927428.8    23815.065   -2903613.7    598107.06   0.50337512    48.963637    48.963637    249.47762 
  593400    26753    298.13467   -37.420991   -2927646.6    23774.043   -2903872.6    598010.68   0.50345625    48.957227    48.957227    249.50274 
  593500    26753    298.13666    504.08599   -2927610.8    23774.201   -2903836.6    597698.55   0.50371916    48.941986    48.941986    249.52785 
  593600    26753    300.26505   -477.16614   -2927702.2    23943.925   -2903758.3    597226.07   0.50411767    48.920176    48.920176    249.55297 
  593700    26753    299.15925    476.80053   -2927491.9    23855.746   -2903636.1    597076.07   0.50424431    48.911571    48.911571    249.57808 
  593800    26753    302.21415    437.52394   -2927528.9    24099.351   -2903429.6    597552.42   0.50384234    48.928616    48.928616     249.6032 
  593900    26753     300.6835    317.25286     -2927513    23977.294   -2903535.7    597408.38   0.50396382    48.920257    48.920257    249.62832 
  594000    26753    299.47379    307.98239   -2927631.3    23880.828   -2903750.5    597059.85   0.50425801    48.903525    48.903525    249.65343 
  594100    26753    297.15726   -745.19422     -2927738    23696.101   -2904041.9    597125.35   0.50420269    48.903748    48.903748    249.67855 
  594200    26753    297.22986   -41.646401   -2928045.4    23701.891   -2904343.5    596578.63   0.50466476    48.878896    48.878896    249.70366 
  594300    26753    297.88309    809.32944   -2927877.4    23753.981   -2904123.4    596117.08    0.5050555    48.857528    48.857528    249.72878 
  594400    26753    299.14429    791.86369   -2927643.8    23854.553   -2903789.3    596513.29   0.50472004    48.871304    48.871304     249.7539 
  594500    26753    300.88854    515.94577   -2927542.1    23993.643   -2903548.4    597334.78   0.50402592    48.902485    48.902485    249.77901 
  594600    26753    300.43244    405.19939   -2927443.6    23957.273   -2903486.3    597740.43   0.50368387    48.916628    48.916628    249.80413 
  594700    26753    299.85408   -516.94868   -2927460.5    23911.153   -2903549.4    597675.26   0.50373879    48.911502    48.911502    249.82924 
  594800    26753    297.89732   -231.35812   -2927506.9    23755.116   -2903751.8    597129.66   0.50419906    48.886715    48.886715    249.85436 
  594900    26753    298.69839   -941.60226   -2927681.5    23818.995   -2903862.5     596837.3   0.50444604    48.872289    48.872289    249.87948 
  595000    26753    297.80522    916.45586   -2927573.6    23747.771   -2903825.9    597117.64   0.50420921    48.881309    48.881309    249.90459 
  595100    26753     299.3035   -147.48425   -2927327.1    23867.249   -2903459.8    597812.48   0.50362316    48.907284    48.907284    249.92971 
  595200    26753    302.13917    893.68458   -2927526.4    24093.372     -2903433    597833.09    0.5036058     48.90567     48.90567    249.95482 
  595300    26753    300.45888    161.01835   -2927536.4    23959.381     -2903577    598240.45   0.50326288    48.919872    48.919872    249.97994 
  595400    26753    300.71649    455.24478   -2927683.3    23979.924   -2903703.4    598247.24   0.50325717    48.917692    48.917692    250.00506 
  595500    26753     297.5978    1021.6466   -2927653.7    23731.231   -2903922.4    597380.23   0.50398757    48.879777    48.879777    250.03017 
  595600    26753    296.89242   -24.976989   -2927699.3    23674.982   -2904024.3    597464.78   0.50391625    48.880781    48.880781    250.05529 
  595700    26753     298.6796     372.2506   -2927572.9    23817.497   -2903755.4    597372.24   0.50399431    48.874541    48.874541     250.0804 
  595800    26753    299.10604    371.35709   -2927359.2    23851.503   -2903507.7    597309.75   0.50404704     48.86953     48.86953    250.10552 
  595900    26753    300.70844   -828.18791   -2927422.6    23979.282   -2903443.4    597663.45   0.50374874    48.881543    48.881543    250.13064 
  596000    26753    300.60795   -86.223482   -2927584.7    23971.269   -2903613.4    597689.97   0.50372639    48.880173    48.880173    250.15575 
  596100    26753    300.06075   -282.68426   -2927731.5    23927.634   -2903803.9    597307.94   0.50404857    48.862096    48.862096    250.18087 
  596200    26753    297.45157   -357.96362   -2927494.4    23719.571   -2903774.8    597121.15   0.50420625    48.852003    48.852003    250.20598 
  596300    26753     302.9244   -322.08959   -2927728.1    24155.988   -2903572.2    597009.39   0.50430063     48.84498     48.84498     250.2311 
  596400    26753     300.2184    909.53385   -2927516.3    23940.205   -2903576.1    596730.15   0.50453662    48.831105    48.831105    250.25622 
  596500    26753    300.64703    104.20494   -2927549.4    23974.385     -2903575    596792.17   0.50448419    48.831192    48.831192    250.28133 
  596600    26753    299.12232   -341.95508   -2927492.2      23852.8   -2903639.4     597034.7   0.50427925    48.838663    48.838663    250.30645 
  596700    26753    300.15144    252.06798   -2927680.9    23934.865     -2903746    596547.07   0.50469146    48.816265    48.816265    250.33156 
  596800    26753    299.27497   -555.47141   -2927742.1    23864.973   -2903877.2    596769.21   0.50450359    48.822904    48.822904    250.35668 
  596900    26753    298.62303     13.32438   -2927703.3    23812.986   -2903890.3    596624.96   0.50462557    48.814555    48.814555     250.3818 
  597000    26753    299.56535    78.748026   -2927666.1    23888.129     -2903778    596942.49   0.50435715    48.825094    48.825094    250.40691 
  597100    26753     300.2464    897.72025   -2927486.7    23942.438   -2903544.3    597191.67    0.5041467    48.832835    48.832835    250.43203 
  597200    26753     302.2387    1213.9393   -2927548.4    24101.309   -2903447.1    597128.69   0.50419988    48.827811    48.827811    250.45714 
  597300    26753    300.28487   -493.63762   -2927525.8    23945.505   -2903580.3    596894.21   0.50439794    48.815776    48.815776    250.48226 
  597400    26753    297.86574     596.5698   -2927644.3    23752.598   -2903891.7       596805   0.50447334    48.809681    48.809681    250.50738 
  597500    26753    297.86879   -817.11407   -2927621.5    23752.841   -2903868.6     597700.9   0.50371718    48.843854    48.843854    250.53249 
  597600    26753    300.33444   -788.21529     -2927641    23949.458   -2903691.5    598712.32   0.50286624    48.882713    48.882713    250.55761 
  597700    26753     300.3519     225.5948   -2927490.9     23950.85   -2903540.1    599037.28   0.50259345    48.893526    48.893526    250.58273 
  597800    26753    301.11875   -374.65352   -2927446.6    24012.001   -2903434.6    599223.43   0.50243731    48.898672    48.898672    250.60784 
  597900    26753    299.24976   -419.39033   -2927358.9    23862.963   -2903495.9    599115.75   0.50252762    48.891829    48.891829    250.63296 
  598000    26753    299.53655    368.59575   -2927560.3    23885.833   -2903674.5    598864.92    0.5027381    48.879143    48.879143    250.65807 
  598100    26753    297.48531    677.74817     -2927608    23722.261   -2903885.7    599090.72   0.50254862    48.885908    48.885908    250.68319 
  598200    26753    299.49116   -23.562712   -2927607.1    23882.213   -2903724.9    599357.28   0.50232511    48.894334    48.894334    250.70831 
  598300    26753    301.72297     174.3595   -2927623.6    24060.183   -2903563.4    599496.35   0.50220858    48.897557    48.897557    250.73342 
  598400    26753    298.46638   -178.47843     -2927376    23800.494   -2903575.5    599700.62   0.50203752    48.903437    48.903437    250.75854 
  598500    26753    300.34058   -429.32944   -2927526.9    23949.948     -2903577    599612.54   0.50211126    48.897397    48.897397    250.78365 
  598600    26753    299.89377   -238.24882   -2927496.3    23914.318     -2903582    599235.93   0.50242684    48.879591    48.879591    250.80877 
  598700    26753    301.26307   -721.06035   -2927518.2    24023.509   -2903494.7    599150.63   0.50249836    48.873665    48.873665    250.83389 
  598800    26753     298.3783    33.207169   -2927367.9    23793.471   -2903574.4    598544.09   0.50300758    48.846475    48.846475      250.859 
  598900    26753    298.59134    1007.8044     -2927527    23810.459   -2903716.5    598135.73   0.50335099    48.827365    48.827365    250.88412 
  599000    26753    301.62056   -692.49377   -2927795.2    24052.017   -2903743.2    598714.87    0.5028641    48.848553    48.848553    250.90923 
  599100    26753    301.71006    457.45223   -2927720.7    24059.154   -2903661.5     599116.6   0.50252691    48.862493    48.862493    250.93435 
  599200    26753    302.77029    803.09439   -2927615.6    24143.699   -2903471.9     599361.5   0.50232158    48.870033    48.870033    250.95947 
  599300    26753    301.12576    324.46522   -2927479.1     24012.56   -2903466.5    599022.84   0.50260556     48.85378     48.85378    250.98458 
  599400    26753    298.71441    348.60468   -2927507.3    23820.273     -2903687    598953.55   0.50266371     48.84851     48.84851     251.0097 
  599500    26753     299.4038    499.04983   -2927742.3    23875.247     -2903867    598316.06   0.50319928    48.820065    48.820065    251.03481 
  599600    26753    299.34104    987.10582   -2927690.3    23870.242   -2903820.1    597800.06   0.50363363    48.796568    48.796568    251.05993 
  599700    26753     300.6753    468.14302   -2927634.4    23976.639   -2903657.7    598062.71   0.50341245    48.804845    48.804845    251.08505 
  599800    26753    299.68176     1040.864   -2927480.1    23897.412   -2903582.7    599078.05   0.50255924    48.843813    48.843813    251.11016 
  599900    26753    300.85209   -774.15163   -2927487.8    23990.737     -2903497    599419.65   0.50227285    48.855293    48.855293    251.13528 
  600000    26753    299.39797   -234.62834   -2927406.1    23874.782   -2903531.3    598844.77   0.50275501    48.829419    48.829419    251.16039 
Loop time of 212896 on 28 procs for 600000 steps with 26753 atoms

Performance: 0.061 ns/day, 394.253 hours/ns, 2.818 timesteps/s
98.9% CPU use with 28 MPI tasks x no OpenMP threads

MPI task timing breakdown:
Section |  min time  |  avg time  |  max time  |%varavg| %total
---------------------------------------------------------------
Pair    | 28219      | 1.041e+05  | 1.4744e+05 |13536.3 | 48.90
Neigh   | 1536.6     | 7446.6     | 13873      |5422.9 |  3.50
Comm    | 231.08     | 32556      | 84304      |16516.2 | 15.29
Output  | 3.331      | 3.6628     | 3.6853     |   3.4 |  0.00
Modify  | 51230      | 68778      | 1.2049e+05 |9311.0 | 32.31
Other   |            | 14.27      |            |       |  0.01

Nlocal:    955.464 ave 2428 max 0 min
Histogram: 14 2 0 0 0 0 1 1 3 7
Nghost:    6871.46 ave 16867 max 0 min
Histogram: 8 4 4 0 0 0 4 3 1 4
Neighs:    818550 ave 2.29394e+06 max 0 min
Histogram: 16 0 0 0 0 1 3 0 4 4

Total # of neighbors = 22919402
Ave neighs/atom = 856.704
Neighbor list builds = 60000
Dangerous builds not checked
write_restart restart.after_deform
unfix 1
unfix 2
unfix 3
unfix std
unfix bd

Please see the log.cite file for references relevant to this simulation

Total wall time: 59:08:17
