LAMMPS (2 Aug 2019)
# lammps code to simulate tension test on RVE of nanocomposite with crack
# crack needs to be initiated first
# system is already equilibrated
# delete some atoms from a region to intiate a crack

# load equilibrated structure

read_restart    restart.npt_equi
  restoring atom style charge from restart
  orthogonal box = (-2.77159 -0.121509 5.50928) to (47.1622 49.8123 105.377)
  2 by 2 by 7 MPI processor grid
  pair style reax/c stores no restart info
  26767 atoms
  read_restart CPU = 0.158503 secs

# ReaxFF potential to define interatomic interactions

pair_style	reax/c control_file lgvdw yes
pair_coeff	* * ffield.reax.lg C C H O H C C C O O C C
Reading potential file ffield.reax.lg with DATE: 2012-01-06

neighbor	4 bin
neigh_modify	every 10 delay 0 check no

thermo 100
thermo_style custom step atoms temp press pe ke etotal vol density lx ly lz      #output variables

compute pnc_temp all temp
compute pnc_pe all pe/atom
compute pnc_stress all stress/atom pnc_temp pair bond
compute pnc_str all reduce sum c_pnc_stress[3]

variable tmpz equal "lz"
variable L0z equal ${tmpz}
variable L0z equal 99.8676703512326
variable tmpx equal "lx"
variable L0x equal ${tmpx}
variable L0x equal 49.9338351756163
variable tmpy equal "ly"
variable L0y equal ${tmpy}
variable L0y equal 49.9338351756163

# define groups of atoms to delete

fix std all qeq/reax 1 0.0 10.0 1e-6 reax/c

region atoms_for_deletion block EDGE 16.5 EDGE EDGE 51.43849 53.93849              # NOTE: box size will change after equilibration
delete_atoms region atoms_for_deletion
Deleted 283 atoms, new total = 26484
reset_ids
Resetting atom IDs ...
Unused restart file global fix info:
  fix style: npt, fix ID: npt_equi
Neighbor list info ...
  update every 10 steps, delay 0 steps, check no
  max neighbors/atom: 2000, page size: 100000
  master list distance cutoff = 14
  ghost atom cutoff = 14
  binsize = 7, bins = 8 8 15
  2 neighbor lists, perpetual/occasional/extra = 2 0 0
  (1) pair reax/c, perpetual
      attributes: half, newton off, ghost
      pair build: half/bin/newtoff/ghost
      stencil: half/ghost/bin/3d/newtoff
      bin: standard
  (2) fix qeq/reax, perpetual, copy from (1)
      attributes: half, newton off, ghost
      pair build: copy
      stencil: none
      bin: none

reset_timestep 0
timestep 0.25
thermo_style custom step atoms temp press pe ke etotal vol density lx ly lz
fix 1 all npt temp 300.0 300.0 25.0 x 0.0 0.0 250.0 y 0.0 0.0 250.0 couple xy
fix 2 all deform 1 z erate 0.00001 units box
fix bd all reax/c/bonds 1000 bonds.reaxc
dump deform1 all custom 1000 dump.deform id type x y z

variable strainz equal "(lz-v_L0z)/v_L0z"
variable strainx equal "(lx-v_L0x)/v_L0x"
variable strainy equal "(ly-v_L0y)/v_L0y"
variable stressz equal "-pzz/10000"
variable p1 equal "v_stressz"
variable p2 equal "v_strainz"
variable p3 equal "v_strainx"
variable p4 equal "v_strainy"
fix 3 all print 100 "${p1} ${p2} ${p3} ${p4}" file pmma_pnc_funct_crack.txt screen no

run 600000
Per MPI rank memory allocation (min/avg/max) = 279.1 | 285.4 | 293.6 Mbytes
Step Atoms Temp Press PotEng KinEng TotEng Volume Density Lx Ly Lz 
       0    26484      300.168   -184.40559   -2904714.6      23695.5   -2881019.1    249008.84     1.190802    49.933835    49.933835     99.86767 
     100    26484    312.29744    1911.3949   -2906178.6    24653.008   -2881525.6    248963.99    1.1910165    49.923098    49.923098    99.892637 
     200    26484    312.92753   -1387.9752   -2907036.1    24702.747   -2882333.4    249229.12    1.1897495    49.943433    49.943433    99.917604 
     300    26484    309.97312    1614.7201   -2907668.6    24469.524   -2883199.1    249231.47    1.1897383    49.937429    49.937429    99.942571 
     400    26484    300.89054    248.97311     -2907721    23752.538   -2883968.5    248944.51    1.1911097     49.90244     49.90244    99.967538 
     500    26484    300.22957    305.76142   -2908313.5     23700.36   -2884613.1    248597.92    1.1927703    49.861464    49.861464    99.992505 
     600    26484    297.90531   -864.78297   -2908593.9    23516.882     -2885077    248717.72    1.1921958    49.867251    49.867251    100.01747 
     700    26484    298.49905    2413.5378   -2908755.9    23563.752   -2885192.1    248584.14    1.1928364    49.847636    49.847636    100.04244 
     800    26484     300.0313    2586.6945   -2908805.5    23684.709   -2885120.8    248537.99    1.1930579    49.836791    49.836791    100.06741 
     900    26484    298.08491   -923.94603   -2908603.6    23531.059   -2885072.5     248339.2    1.1940129    49.810643    49.810643    100.09237 
    1000    26484    302.70017     1105.973   -2909128.2    23895.392   -2885232.8    248251.23     1.194436     49.79561     49.79561    100.11734 
    1100    26484    300.13373     4112.541   -2909268.7    23692.794   -2885575.9    248377.22    1.1938301    49.802035    49.802035    100.14231 
    1200    26484    298.84412    753.79827   -2909364.6    23590.992   -2885773.6    248661.98     1.192463    49.824365    49.824365    100.16727 
    1300    26484    299.87716    82.948123   -2909378.6    23672.541     -2885706    248887.69    1.1913816    49.840761    49.840761    100.19224 
    1400    26484    301.56627   -69.063207   -2909447.7     23805.88   -2885641.8    248991.65    1.1908841     49.84496     49.84496    100.21721 
    1500    26484    298.32373    1160.1167     -2909073    23549.912   -2885523.1     248783.2     1.191882    49.817885    49.817885    100.24217 
    1600    26484    301.48434   -1140.7567   -2909347.5    23799.413   -2885548.1    248481.95     1.193327    49.781515    49.781515    100.26714 
    1700    26484    302.02966     565.8818   -2909692.1    23842.461   -2885849.6    248271.52    1.1943384    49.754237    49.754237    100.29211 
    1800    26484    299.56139   -775.22357   -2909706.9    23647.613   -2886059.3    248223.75    1.1945683    49.743259    49.743259    100.31707 
    1900    26484    300.44898    72.305481   -2909873.1    23717.681   -2886155.4    248169.34    1.1948302    49.731619    49.731619    100.34204 
    2000    26484    300.27785    251.42465   -2909863.9    23704.172   -2886159.7    248075.46    1.1952823    49.716027    49.716027    100.36701 
    2100    26484    298.93021    425.90249   -2909661.1    23597.788   -2886063.3    248146.62    1.1949396    49.716973    49.716973    100.39198 
    2200    26484    302.34691   -1341.2053   -2909793.7    23867.504   -2885926.2    248061.48    1.1953497    49.702264    49.702264    100.41694 
    2300    26484    301.02823   -548.88962   -2909815.9    23763.407   -2886052.5    247883.18    1.1962095    49.678223    49.678223    100.44191 
    2400    26484      297.185   -1397.6473   -2909818.1    23460.019   -2886358.1    247735.19    1.1969241    49.657219    49.657219    100.46688 
    2500    26484    297.18099    1106.2135   -2909833.2    23459.703   -2886373.5    247655.33    1.1973101    49.643047    49.643047    100.49184 
    2600    26484    301.02948    23.006289   -2910082.7    23763.506   -2886319.2    247679.97    1.1971909    49.639351    49.639351    100.51681 
    2700    26484    299.43746    840.67895   -2909746.9     23637.83   -2886109.1    247835.94    1.1964375    49.648812    49.648812    100.54178 
    2800    26484    305.48354    65.953091   -2910006.4    24115.113   -2885891.3    247966.51    1.1958075    49.655724    49.655724    100.56674 
    2900    26484    299.61854   -2400.4559   -2909692.3    23652.125   -2886040.2    248123.78    1.1950496    49.665304    49.665304    100.59171 
    3000    26484     296.8443    291.18469   -2909654.6    23433.124   -2886221.5     248319.6    1.1941071    49.678734    49.678734    100.61668 
    3100    26484    299.63211   -1640.6733   -2909937.7    23653.196   -2886284.5    248662.32    1.1924614    49.706837    49.706837    100.64164 
    3200    26484    296.57889    1734.6585   -2909713.1    23412.173   -2886300.9    248697.73    1.1922916    49.704211    49.704211    100.66661 
    3300    26484     300.2995   -1134.8696   -2910043.2     23705.88   -2886337.4    248981.76    1.1909315     49.72642     49.72642    100.69158 
    3400    26484     299.8175     264.5092   -2909968.9    23667.831     -2886301    248984.99     1.190916    49.720578    49.720578    100.71655 
    3500    26484    299.54796    221.16554   -2909850.6    23646.553     -2886204    248927.58    1.1911907    49.708685    49.708685    100.74151 
    3600    26484    300.48612    607.07019   -2909869.2    23720.612   -2886148.6     248950.7    1.1910801    49.704834    49.704834    100.76648 
    3700    26484    299.49647    594.67731   -2909886.6    23642.488   -2886244.2    248893.49    1.1913539    49.692967    49.692967    100.79145 
    3800    26484     300.3114    -968.9575   -2910077.4     23706.82   -2886370.5    248850.06    1.1915617    49.682479    49.682479    100.81641 
    3900    26484    299.75727     1832.316   -2910147.7    23663.077   -2886484.6    248706.05    1.1922517    49.661952    49.661952    100.84138 
    4000    26484    298.70182    996.00373   -2910020.4    23579.758   -2886440.6    248885.53    1.1913919    49.673719    49.673719    100.86635 
    4100    26484    301.07502   -301.36045   -2909908.7    23767.101   -2886141.6    249175.68    1.1900046    49.696515    49.696515    100.89131 
    4200    26484    300.89575   -2712.4064   -2909897.6    23752.949   -2886144.7    249485.02    1.1885292    49.721201    49.721201    100.91628 
    4300    26484    300.51956   -2663.5634   -2910035.1    23723.253   -2886311.9    249562.81    1.1881587    49.722802    49.722802    100.94125 
    4400    26484    298.96811   -978.88443   -2909995.8    23600.779     -2886395    249629.24    1.1878425    49.723271    49.723271    100.96621 
    4500    26484    303.67246    546.00829   -2910392.6    23972.145   -2886420.4    249501.65    1.1884499    49.704417    49.704417    100.99118 
    4600    26484    299.46296     1727.872   -2910322.6    23639.843   -2886682.7    249586.54    1.1880457    49.706728    49.706728    101.01615 
    4700    26484    297.87662    716.02075   -2910211.2    23514.617   -2886696.6    249928.54      1.18642    49.734627    49.734627    101.04112 
    4800    26484    298.29452    -2056.921   -2909961.8    23547.606   -2886414.2    250232.57    1.1849785    49.758721    49.758721    101.06608 
    4900    26484    300.14701    -1066.705     -2909979    23693.843   -2886285.1    250121.97    1.1855025    49.741579    49.741579    101.09105 
    5000    26484    300.74233   -1641.4933   -2910048.4    23740.838   -2886307.6    249893.97    1.1865841    49.712765    49.712765    101.11602 
    5100    26484    298.41014   -1380.3019     -2910070    23556.733   -2886513.3    249673.98    1.1876296    49.684744    49.684744    101.14098 
    5200    26484    299.22083    1925.9213   -2910237.9     23620.73   -2886617.2    249583.81    1.1880587    49.669641    49.669641    101.16595 
    5300    26484    300.53654   -2365.2216   -2910029.2    23724.592   -2886304.6     249453.2    1.1886807    49.650517    49.650517    101.19092 
    5400    26484    300.89448    2020.7629   -2909879.2    23752.848   -2886126.4    249229.57    1.1897473    49.622135    49.622135    101.21588 
    5500    26484    299.86528   -2511.3738   -2909889.1    23671.603   -2886217.5     249236.1    1.1897162    49.616666    49.616666    101.24085 
    5600    26484     301.3898    1298.6538   -2910268.6     23791.95   -2886476.6    249305.05    1.1893871    49.617411    49.617411    101.26582 
    5700    26484    300.17686     1451.532   -2910294.9    23696.199   -2886598.7    249318.81    1.1893215    49.612665    49.612665    101.29078 
    5800    26484    299.49686   -394.13406   -2910204.4     23642.52   -2886561.9    249486.62    1.1885215    49.623243    49.623243    101.31575 
    5900    26484    298.74564   -1647.4359     -2909864    23583.217   -2886280.8    249600.52    1.1879791    49.628455    49.628455    101.34072 
    6000    26484     302.0358   -2234.9253   -2910005.5    23842.945   -2886162.6    249813.53    1.1869662    49.643512    49.643512    101.36569 
    6100    26484    299.31051    1786.9224     -2909919    23627.809   -2886291.2    249964.68    1.1862485    49.652413    49.652413    101.39065 
    6200    26484    298.32361   -69.190919   -2909982.7    23549.902   -2886432.8    250106.01    1.1855781    49.660335    49.660335    101.41562 
    6300    26484    297.76277   -1876.1617   -2909995.8    23505.629   -2886490.2    250187.45    1.1851922    49.662307    49.662307    101.44059 
    6400    26484    301.00015    974.98742   -2910025.1    23761.191   -2886263.9    250518.98    1.1836238    49.689085    49.689085    101.46555 
    6500    26484    304.55456   -1894.1149   -2910076.3    24041.778   -2886034.5    250730.06    1.1826273      49.7039      49.7039    101.49052 
    6600    26484    303.00227   -1202.5061   -2910108.9     23919.24   -2886189.7     250862.5    1.1820029    49.710911    49.710911    101.51549 
    6700    26484    299.81757    357.61845   -2910031.5    23667.837   -2886363.7    250755.35     1.182508    49.694182    49.694182    101.54045 
    6800    26484    297.46835   -1765.2527   -2910034.4    23482.388   -2886552.1    250597.55    1.1832526    49.672438    49.672438    101.56542 
    6900    26484      297.701    943.69096   -2910008.2    23500.753   -2886507.5    250395.26    1.1842086    49.646283    49.646283    101.59039 
    7000    26484    299.55143    170.42111   -2909931.9    23646.828   -2886285.1    250384.65    1.1842588    49.639132    49.639132    101.61535 
    7100    26484      301.636    973.65958   -2910017.1    23811.385   -2886205.7    250335.66    1.1844905     49.62818     49.62818    101.64032 
    7200    26484    299.58366    875.32487   -2909927.3    23649.371     -2886278    250194.61    1.1851583    49.608104    49.608104    101.66529 
    7300    26484    299.18321    64.788049   -2909969.2     23617.76   -2886351.4    250138.58    1.1854238    49.596459    49.596459    101.69026 
    7400    26484    301.94813   -763.19056   -2910287.8    23836.025   -2886451.8     250188.1    1.1851891     49.59528     49.59528    101.71522 
    7500    26484    299.19622    348.84434   -2910213.1    23618.787   -2886594.3    250075.52    1.1857227    49.578037    49.578037    101.74019 
    7600    26484    299.33216    666.28904   -2910366.8    23629.518   -2886737.3    249947.66    1.1863292     49.55928     49.55928    101.76516 
    7700    26484    298.53719   -1168.2236   -2910444.6    23566.762   -2886877.9     250047.7    1.1858546    49.563117    49.563117    101.79012 
    7800    26484    297.57023    1483.5993   -2910147.3     23490.43   -2886656.9    250214.33    1.1850649    49.573549    49.573549    101.81509 
    7900    26484    299.30101   -582.65335   -2910029.5    23627.059   -2886402.4    250358.12    1.1843843    49.581713    49.581713    101.84006 
    8000    26484    301.42357   -519.85163   -2910017.1    23794.616   -2886222.5    250384.82     1.184258    49.578279    49.578279    101.86502 
    8100    26484    304.01642    772.83054   -2910199.6    23999.297   -2886200.3    250522.99    1.1836048    49.585881    49.585881    101.88999 
    8200    26484    299.44478   -1257.7821   -2910062.6    23638.408   -2886424.2     250635.5    1.1830735    49.590939    49.590939    101.91496 
    8300    26484    297.52832    505.02369   -2910022.4    23487.121   -2886535.2    250734.88    1.1826046    49.594694    49.594694    101.93992 
    8400    26484    298.84412   -1929.3122   -2910026.2    23590.992   -2886435.2    251197.12    1.1804284    49.634311    49.634311    101.96489 
    8500    26484    298.26955   -2068.5398   -2909925.3    23545.634   -2886379.7    251523.03    1.1788989    49.660419    49.660419    101.98986 
    8600    26484    302.74051   -2319.5901   -2910209.3    23898.576   -2886310.7    251651.99    1.1782947     49.66707     49.66707    102.01483 
    8700    26484    299.65373    234.93853   -2910044.1    23654.903   -2886389.2    251458.21    1.1792027     49.64187     49.64187    102.03979 
    8800    26484    298.46218   -995.91329   -2910231.6    23560.841   -2886670.8    251302.67    1.1799326    49.620444    49.620444    102.06476 
    8900    26484    299.61614    130.94377   -2910384.7    23651.935   -2886732.8    251010.08     1.181308    49.585484    49.585484    102.08973 
    9000    26484    300.97784    -2587.095   -2910270.8     23759.43   -2886511.3    250670.92    1.1829063    49.545916    49.545916    102.11469 
    9100    26484    301.95949    1024.0981     -2910270    23836.922   -2886433.1    250570.03    1.1833826    49.529889    49.529889    102.13966 
    9200    26484    301.51083   -406.57053   -2910215.5    23801.504     -2886414    250586.07    1.1833068    49.525422    49.525422    102.16463 
    9300    26484    298.33606   -1654.7446   -2909956.5    23550.885   -2886405.6    250455.36    1.1839244    49.506455    49.506455    102.18959 
    9400    26484    300.59794   -1381.5485     -2909979    23729.439   -2886249.6    250388.65    1.1842398    49.493816    49.493816    102.21456 
    9500    26484    301.66072   -2364.1219   -2909974.4    23813.336   -2886161.1    250601.78    1.1832327    49.508829    49.508829    102.23953 
    9600    26484    298.53123   -2031.8935   -2909887.9    23566.292   -2886321.6    250775.67    1.1824122    49.519957    49.519957    102.26449 
    9700    26484    299.54014   -2898.9957   -2910195.5    23645.936   -2886549.5    250862.45    1.1820032     49.52248     49.52248    102.28946 
    9800    26484    297.63877   -226.46271   -2910107.2     23495.84   -2886611.4    250717.53    1.1826864    49.502133    49.502133    102.31443 
    9900    26484    298.79799   -68.143134   -2910098.3    23587.351   -2886510.9    250607.05    1.1832078    49.485187    49.485187     102.3394 
   10000    26484    301.71201    130.54157   -2910052.7    23817.385   -2886235.3    250515.11     1.183642    49.470075    49.470075    102.36436 
   10100    26484    300.82042   -2499.4322   -2909850.6    23747.003   -2886103.6       250507    1.1836804    49.463243    49.463243    102.38933 
   10200    26484    299.36724    314.93352   -2909884.2    23632.287   -2886251.9    250452.99    1.1839356    49.451881    49.451881     102.4143 
   10300    26484     300.5076    61.484179   -2910099.4    23722.308   -2886377.1    250388.85    1.1842389    49.439522    49.439522    102.43926 
   10400    26484    300.80937    1190.3166   -2910183.1     23746.13     -2886437    250245.43    1.1849176     49.41934     49.41934    102.46423 
   10500    26484    299.29927   -129.55034   -2910128.8    23626.921   -2886501.9    250059.51    1.1857986    49.394961    49.394961     102.4892 
   10600    26484    300.06363   -412.26603   -2910185.4    23687.261   -2886498.2    250163.39    1.1853062    49.399203    49.399203    102.51416 
   10700    26484    299.16808    2479.3354   -2910003.5    23616.566   -2886386.9    250462.81    1.1838892    49.422739    49.422739    102.53913 
   10800    26484    302.89749   -357.84609   -2910106.9    23910.968     -2886196    250712.15    1.1827118    49.441315    49.441315     102.5641 
   10900    26484    299.72356    1254.9955   -2909994.7    23660.416   -2886334.3    250752.87    1.1825197    49.439312    49.439312    102.58906 
   11000    26484    298.71227   -1835.1184     -2910130    23580.583   -2886549.4    251002.42     1.181344     49.45789     49.45789    102.61403 
   11100    26484    300.82387   -260.65221   -2910301.5    23747.275   -2886554.2    251186.11    1.1804801    49.469965    49.469965      102.639 
   11200    26484    299.41766    3247.7407     -2910168    23636.267   -2886531.7    251057.96    1.1810827    49.451331    49.451331    102.66397 
   11300    26484    301.34615   -1011.3385   -2910213.9    23788.504   -2886425.4    251058.39    1.1810807    49.445361    49.445361    102.68893 
   11400    26484     302.2015    66.129963   -2910115.5    23856.026   -2886259.4    251076.79    1.1809941    49.441163    49.441163     102.7139 
   11500    26484    300.06195    550.74798   -2909901.5    23687.128   -2886214.3    250935.58    1.1816587    49.421251    49.421251    102.73887 
   11600    26484    298.82837    424.08064   -2910165.7    23589.749   -2886575.9    250806.41    1.1822673    49.402527    49.402527    102.76383 
   11700    26484    299.41157   -67.848288   -2910304.2    23635.786   -2886668.4    250815.32    1.1822253    49.397405    49.397405     102.7888 
   11800    26484    298.98693    184.76509   -2910240.3    23602.265   -2886638.1    250806.98    1.1822646    49.390586    49.390586    102.81377 
   11900    26484    299.91699    263.44173   -2910341.7    23675.685     -2886666    250794.49    1.1823235     49.38336     49.38336    102.83873 
   12000    26484    298.27777    1115.4545   -2910259.3    23546.283     -2886713    250576.96    1.1833499    49.355948    49.355948     102.8637 
   12100    26484     299.2829   -23.265185   -2910205.7    23625.629     -2886580     250324.2    1.1845447    49.325063    49.325063    102.88867 
   12200    26484    301.80588    580.45171   -2910184.2    23824.795   -2886359.4    250234.59    1.1849689    49.310251    49.310251    102.91363 
   12300    26484    301.17063   -1863.7741   -2910270.9    23774.648   -2886496.3    250411.23     1.184133     49.32167     49.32167     102.9386 
   12400    26484    301.09995    481.42175   -2910447.4    23769.069   -2886678.3     250330.7     1.184514    49.307759    49.307759    102.96357 
   12500    26484     300.8394    1137.0821   -2910479.9    23748.501   -2886731.4    250239.42    1.1849461    49.292793    49.292793    102.98854 
   12600    26484     297.4854    1146.1795   -2910227.3    23483.734   -2886743.6    250181.28    1.1852214    49.281093    49.281093     103.0135 
   12700    26484    299.49593   -702.23934   -2910197.9    23642.446   -2886555.5    250386.33    1.1842508    49.295311    49.295311    103.03847 
   12800    26484    301.69338    438.54865   -2910142.3    23815.914   -2886326.4    250800.03    1.1822974    49.330042    49.330042    103.06344 
   12900    26484    300.91971   -2969.1864   -2910084.2    23754.841   -2886329.4    251087.66     1.180943    49.352344    49.352344     103.0884 
   13000    26484    297.60088   -456.51127   -2910198.3     23492.85   -2886705.5    250948.35    1.1815986    49.332677    49.332677    103.11337 
   13100    26484    298.59262     1098.651   -2910324.7    23571.138   -2886753.6    251127.34    1.1807564    49.344294    49.344294    103.13834 
   13200    26484    300.34771   -3476.0302     -2910336    23709.686   -2886626.3    251530.55    1.1788636    49.377916    49.377916     103.1633 
   13300    26484    300.13879    414.73748   -2910090.9    23693.194   -2886397.7    251622.77    1.1784316    49.380991    49.380991    103.18827 
   13400    26484    302.87372   -163.51095   -2910256.9    23909.091   -2886347.8     251574.6    1.1786572    49.370292    49.370292    103.21324 
   13500    26484    300.96771   -60.332816   -2910223.9    23758.629   -2886465.3    251598.54    1.1785451     49.36667     49.36667     103.2382 
   13600    26484    302.37005    1797.2327   -2910454.9    23869.332   -2886585.5    251703.64    1.1780529    49.371011    49.371011    103.26317 
   13700    26484    299.39617   -509.41176   -2910284.2    23634.571   -2886649.6    251695.36    1.1780917    49.364231    49.364231    103.28814 
   13800    26484    299.78433   -625.69375   -2910249.5    23665.213   -2886584.3    251835.74     1.177435    49.372029    49.372029     103.3131 
   13900    26484    301.70249   -2612.8331     -2910201    23816.634   -2886384.4     252033.1     1.176513    49.385404    49.385404    103.33807 
   14000    26484    303.01444     452.5877     -2910052      23920.2   -2886131.8    252058.32    1.1763952    49.381911    49.381911    103.36304 
   14100    26484    300.37566    1534.7488   -2909980.7    23711.893   -2886268.8    252030.73     1.176524    49.373245    49.373245    103.38801 
   14200    26484    298.29017   -3413.3337   -2909990.4    23547.263   -2886443.2    252276.46    1.1753781    49.391345    49.391345    103.41297 
   14300    26484    298.29797   -575.37952   -2909976.9    23547.878   -2886429.1    252263.23    1.1754397    49.384089    49.384089    103.43794 
   14400    26484    297.99942   -2987.2009   -2910003.4    23524.311   -2886479.1    252268.48    1.1754152    49.378644    49.378644    103.46291 
   14500    26484    298.57361    532.26639   -2910097.8    23569.638   -2886528.1    252285.43    1.1753362    49.374346    49.374346    103.48787 
   14600    26484    301.40665   -3454.1921   -2910183.4    23793.279   -2886390.1    252312.66    1.1752094    49.371055    49.371055    103.51284 
   14700    26484    301.69451   -375.54647   -2910042.7    23816.004   -2886226.7    252513.51    1.1742746    49.384746    49.384746    103.53781 
   14800    26484    297.50563    715.17311   -2909747.2     23485.33   -2886261.9    252805.95    1.1729163    49.407379    49.407379    103.56277 
   14900    26484    301.17086   -1272.7505     -2910305    23774.666   -2886530.3    253027.61    1.1718887    49.423077    49.423077    103.58774 
   15000    26484     297.8703   -298.77834   -2910132.5    23514.117   -2886618.3     252977.4    1.1721214    49.412218    49.412218    103.61271 
   15100    26484    299.61604   -1458.6458   -2910156.1    23651.928   -2886504.2    253139.24     1.171372    49.422067    49.422067    103.63767 
   15200    26484    299.80465   -3.8758178   -2910143.2    23666.817   -2886476.4    253139.49    1.1713708    49.416139    49.416139    103.66264 
   15300    26484     297.4582    -560.0304     -2910004    23481.586   -2886522.4     253042.2    1.1718212    49.400694    49.400694    103.68761 
   15400    26484    303.14346    1277.1269   -2910174.8    23930.385   -2886244.5       252951    1.1722437    49.385845    49.385845    103.71258 
   15500    26484    302.53196   -3477.5618   -2909956.1    23882.113   -2886073.9    252907.96    1.1724432    49.375701    49.375701    103.73754 
   15600    26484    300.54971   -324.09285   -2910011.1    23725.632   -2886285.5    252808.33    1.1729052    49.360035    49.360035    103.76251 
   15700    26484    299.93886    178.16841   -2910163.1    23677.412   -2886485.7    252490.64     1.174381    49.323078    49.323078    103.78748 
   15800    26484    298.66495    956.68531   -2910189.5    23576.848   -2886612.6    251987.34    1.1767266    49.267969    49.267969    103.81244 
   15900    26484    301.15818   -2458.3432   -2910456.4    23773.666   -2886682.7    251640.82     1.178347    49.228163    49.228163    103.83741 
   16000    26484     298.9598    -1343.364   -2910273.5    23600.123   -2886673.4    251530.27    1.1788649    49.211431    49.211431    103.86238 
   16100    26484    299.55307   -210.98318   -2910098.9    23646.957     -2886452    251784.69    1.1776737    49.230397    49.230397    103.88734 
   16200    26484     301.8272    297.32162   -2910143.3    23826.478   -2886316.8    251921.52    1.1770341    49.237856    49.237856    103.91231 
   16300    26484     302.3537   -1259.8365   -2910320.1    23868.041   -2886452.1    251695.87    1.1780893    49.209887    49.209887    103.93728 
   16400    26484    297.09922     1129.228   -2910183.7    23453.248   -2886730.4    251759.63    1.1777909    49.210211    49.210211    103.96224 
   16500    26484    299.45583    2577.7027     -2910284     23639.28   -2886644.7    252176.88    1.1758422     49.24506     49.24506    103.98721 
   16600    26484    301.43877   -1782.5529     -2910296    23795.816   -2886500.2    252529.67    1.1741995    49.273579    49.273579    104.01218 
   16700    26484    302.82665    -713.8528   -2910318.1    23905.376   -2886412.7    252633.88    1.1737152    49.277831    49.277831    104.03715 
   16800    26484    299.62493    935.46895   -2910195.9    23652.629   -2886543.3    252590.29    1.1739177    49.267668    49.267668    104.06211 
   16900    26484    299.23798    1256.8514   -2910400.7    23622.083   -2886778.6    252590.51    1.1739167     49.26178     49.26178    104.08708 
   17000    26484    299.54241   -2714.6869   -2910331.4    23646.115   -2886685.3    252803.87    1.1729259    49.276672    49.276672    104.11205 
   17100    26484    300.58929   -1999.2982     -2910145    23728.757   -2886416.2    253167.13    1.1712429    49.306151    49.306151    104.13701 
   17200    26484    300.94485    1041.7397   -2910153.9    23756.825   -2886397.1    253321.92    1.1705273     49.31531     49.31531    104.16198 
   17300    26484    301.16159   -1348.2266   -2910242.2    23773.935   -2886468.2    253500.06    1.1697047    49.326736    49.326736    104.18695 
   17400    26484     300.4736   -2599.0447   -2910299.3    23719.624   -2886579.7    253846.17    1.1681098    49.354485    49.354485    104.21191 
   17500    26484    299.02429    -1137.756   -2910192.7    23605.214   -2886587.5    254283.05     1.166103    49.391021    49.391021    104.23688 
   17600    26484     298.1095   -1641.1846   -2909899.3        23533   -2886366.3    254315.71    1.1659532    49.388278    49.388278    104.26185 
   17700    26484    301.34263   -640.53344   -2909963.2    23788.226     -2886175    254391.89     1.165604    49.389762    49.389762    104.28681 
   17800    26484    298.57846    699.45828   -2909845.6     23570.02   -2886275.6    254055.27    1.1671484    49.351167    49.351167    104.31178 
   17900    26484     299.8644   -235.59471   -2910050.2    23671.534   -2886378.6    253894.54    1.1678873    49.329649    49.329649    104.33675 
   18000    26484    300.88624    264.66376   -2910311.9    23752.198   -2886559.7    253837.89     1.168148    49.318246    49.318246    104.36172 
   18100    26484    299.10451   -943.06954   -2910389.8    23611.547   -2886778.2    253467.22    1.1698563     49.27633     49.27633    104.38668 
   18200    26484    300.38764   -491.85829   -2910376.3    23712.839   -2886663.5    252966.98    1.1721696    49.221794    49.221794    104.41165 
   18300    26484    303.56961    -745.4196   -2910367.9    23964.026   -2886403.8    252764.67    1.1731078    49.196226    49.196226    104.43662 
   18400    26484    301.23737    -201.3835   -2910228.8    23779.917   -2886448.9    252837.75    1.1727687    49.197458    49.197458    104.46158 
   18500    26484    300.03383   -1654.6093   -2910230.4    23684.908   -2886545.4    252989.55     1.172065    49.206344    49.206344    104.48655 
   18600    26484    298.71509   -1630.4211   -2910143.8    23580.806     -2886563     252895.1    1.1725028     49.19128     49.19128    104.51152 
   18700    26484    300.26945   -2154.7675   -2910037.9    23703.508   -2886334.4     252985.2    1.1720852    49.194167    49.194167    104.53648 
   18800    26484    302.71203   -2392.0715   -2909997.9    23896.328   -2886101.5    253127.78     1.171425    49.202153    49.202153    104.56145 
   18900    26484    302.15319   -1713.6612   -2910041.9    23852.213   -2886189.7    253193.45    1.1711212    49.202661    49.202661    104.58642 
   19000    26484    301.63832    82.726229   -2910135.9    23811.568   -2886324.4    253402.81    1.1701536    49.217124    49.217124    104.61138 
   19100    26484    300.90279   -1976.7549   -2910181.4    23753.505   -2886427.9    253547.88    1.1694841    49.225337    49.225337    104.63635 
   19200    26484    300.01757   -325.29967     -2910176    23683.625   -2886492.4    253490.18    1.1697503    49.213864    49.213864    104.66132 
   19300    26484    299.28053   -833.00029   -2910071.1    23625.442   -2886445.7    253500.63    1.1697021    49.209009    49.209009    104.68629 
   19400    26484    300.29166   -892.88198   -2909928.1    23705.261   -2886222.8    253581.06    1.1693311    49.210948    49.210948    104.71125 
   19500    26484    303.87458    1161.6695     -2909917      23988.1   -2885928.9    253707.43    1.1687486    49.217341    49.217341    104.73622 
   19600    26484    301.64636   -1427.9054   -2909895.8    23812.203   -2886083.6    253650.78    1.1690097    49.205982    49.205982    104.76119 
   19700    26484     301.7956    1196.0854   -2910094.9    23823.984   -2886270.9    253695.03    1.1688057    49.204411    49.204411    104.78615 
   19800    26484    301.38607   -465.10458   -2910255.1    23791.655   -2886463.4    253594.73    1.1692681    49.188823    49.188823    104.81112 
   19900    26484    298.91936    304.71515     -2910201    23596.931   -2886604.1    253244.43    1.1708854    49.148985    49.148985    104.83609 
   20000    26484    300.50088   -2333.9692   -2910314.1    23721.778   -2886592.3    253338.57    1.1704503    49.152266    49.152266    104.86105 
   20100    26484    300.29555    -2353.875   -2910179.9    23705.569   -2886474.4    253561.34     1.169422    49.168019    49.168019    104.88602 
   20200    26484    301.96288     1291.971     -2910180    23837.189   -2886342.8    253711.79    1.1687286    49.176751    49.176751    104.91099 
   20300    26484    300.89814   -3161.5041   -2910214.2    23753.138   -2886461.1    253720.83    1.1686869    49.171777    49.171777    104.93595 
   20400    26484    295.32875    944.14141   -2910001.4    23313.485   -2886687.9    253568.87    1.1693873    49.151203    49.151203    104.96092 
   20500    26484    300.75754   -2505.3742   -2910312.7    23742.039   -2886570.6    253618.43    1.1691588     49.15016     49.15016    104.98589 
   20600    26484    300.99367   -1654.0163   -2910140.5    23760.679   -2886379.8    253741.21    1.1685931    49.156211    49.156211    105.01086 
   20700    26484    300.53054   -2541.6835   -2910039.4    23724.119   -2886315.3    253682.29    1.1688645    49.144662    49.144662    105.03582 
   20800    26484     302.7288   -1554.0049   -2910232.8    23897.651   -2886335.2    253867.06    1.1680138    49.156714    49.156714    105.06079 
   20900    26484    299.30322   -1000.8599   -2910076.3    23627.233   -2886449.1    254174.54    1.1666008    49.180631    49.180631    105.08576 
   21000    26484    299.52543    971.56763   -2910221.8    23644.775   -2886577.1    254514.68    1.1650417    49.207682    49.207682    105.11072 
   21100    26484    297.73004   -2375.6557   -2910279.1    23503.045     -2886776     254616.8    1.1645744    49.211709    49.211709    105.13569 
   21200    26484    297.73142   -840.40343   -2910370.3    23503.155   -2886867.2    254787.08    1.1637961    49.222317    49.222317    105.16066 
   21300    26484    298.56269    -452.1861   -2910114.1    23568.775   -2886545.4     255078.6     1.162466    49.244624    49.244624    105.18562 
   21400    26484    301.29824   -2685.9666   -2910170.2    23784.722   -2886385.4    255281.63    1.1615415    49.258371    49.258371    105.21059 
   21500    26484    298.72086    602.68393   -2909893.3    23581.262     -2886312    255222.37    1.1618112    49.246811    49.246811    105.23556 
   21600    26484    299.14636    899.38461   -2909797.4    23614.851   -2886182.6    255393.79    1.1610314    49.257504    49.257504    105.26052 
   21700    26484    300.98972   -887.28168   -2909798.3    23760.367   -2886037.9    255451.46    1.1607693    49.257224    49.257224    105.28549 
   21800    26484    301.80314    228.47574   -2909808.9    23824.579   -2885984.3    255356.56    1.1612007    49.242235    49.242235    105.31046 
   21900    26484     300.0805   -1083.9446     -2909967    23688.592   -2886278.4    255413.31    1.1609427     49.24187     49.24187    105.33543 
   22000    26484    297.51809   -401.38811   -2909960.1    23486.314   -2886473.8    255295.83    1.1614769    49.224711    49.224711    105.36039 
   22100    26484    296.13209   -1746.8524   -2909870.4    23376.902   -2886493.5    254665.48    1.1643518    49.158079    49.158079    105.38536 
   22200    26484    301.67076   -1686.7189   -2910081.4    23814.129   -2886267.2    254320.37    1.1659318    49.118941    49.118941    105.41033 
   22300    26484    299.86962    99.993033   -2909834.3    23671.946   -2886162.3    254288.64    1.1660773    49.110061    49.110061    105.43529 
   22400    26484    302.02327   -3142.8862     -2910070    23841.956   -2886228.1    254215.13    1.1664145     49.09715     49.09715    105.46026 
   22500    26484    299.52172   -1003.8011   -2909967.9    23644.482   -2886323.4    254112.41     1.166886     49.08142     49.08142    105.48523 
   22600    26484     301.3016    607.14751   -2910127.6    23784.987   -2886342.6    254341.13    1.1658367    49.097693    49.097693    105.51019 
   22700    26484    300.36638   -2058.4529   -2910082.2     23711.16   -2886371.1    254489.62    1.1651564    49.106214    49.106214    105.53516 
   22800    26484    299.84862   -499.81333     -2910112    23670.288   -2886441.7    254480.13    1.1651999    49.099491    49.099491    105.56013 
   22900    26484    299.18692   -1469.2253   -2910160.3    23618.053   -2886542.2    254245.31    1.1662761    49.071029    49.071029    105.58509 
   23000    26484    300.42272    1588.8858   -2910304.9    23715.608   -2886589.3    253978.97    1.1674991    49.039522    49.039522    105.61006 
   23100    26484    300.68214    398.06222   -2910146.3    23736.087   -2886410.2    253973.28    1.1675252    49.033177    49.033177    105.63503 
   23200    26484    301.51908   -434.18714   -2910036.7    23802.155   -2886234.5    253905.94    1.1678349    49.020884    49.020884       105.66 
   23300    26484    298.33814    -4074.349   -2909738.3    23551.049   -2886187.3    253927.85    1.1677341    49.017208    49.017208    105.68496 
   23400    26484    300.12754    1482.5625   -2909939.2    23692.306   -2886246.8    254200.38    1.1664822    49.037713    49.037713    105.70993 
   23500    26484    298.51292   -1490.9973   -2910067.5    23564.847   -2886502.7    254481.22    1.1651949    49.059001    49.059001     105.7349 
   23600    26484    297.89859   -2241.9696   -2910111.3    23516.351   -2886594.9    254749.82    1.1639663     49.07909     49.07909    105.75986 
   23700    26484    300.30009   -1025.4376   -2910109.4    23705.927   -2886403.4    254922.19    1.1631793    49.089897    49.089897    105.78483 
   23800    26484    300.27829   -1225.2086   -2909898.3    23704.206   -2886194.1    254836.38     1.163571    49.075844    49.075844     105.8098 
   23900    26484    302.43705   -2263.9626   -2910089.1     23874.62   -2886214.5    254450.45    1.1653358    49.032884    49.032884    105.83476 
   24000    26484      297.291   -538.40716   -2909802.3    23468.387   -2886333.9    254242.84    1.1662874    49.007097    49.007097    105.85973 
   24100    26484     298.9542   -904.10642   -2910019.1    23599.682   -2886419.5    254237.35    1.1663126    49.000789    49.000789     105.8847 
   24200    26484    298.01625   -765.93204   -2910037.8    23525.639   -2886512.2     254356.2    1.1657676    49.006464    49.006464    105.90966 
   24300    26484    297.46524   -998.93094   -2910253.9    23482.142   -2886771.7    254918.73    1.1631951    49.054843    49.054843    105.93463 
   24400    26484    297.05364    105.78111   -2910238.3     23449.65   -2886788.6    254962.48    1.1629955    49.053273    49.053273     105.9596 
   24500    26484    297.38759    2036.1847   -2909968.6    23476.012   -2886492.6    254721.46    1.1640959    49.024306    49.024306    105.98457 
   24600    26484    301.66787   -2149.5333   -2910153.9    23813.901     -2886340    254590.75    1.1646936    49.005954    49.005954    106.00953 
   24700    26484    299.37114   -2861.0075   -2909965.6    23632.595     -2886333    254676.77    1.1643002    49.008462    49.008462     106.0345 
   24800    26484    300.53099    2107.5623   -2910009.9    23724.155   -2886285.7    254843.19    1.1635399    49.018701    49.018701    106.05947 
   24900    26484     299.4778    209.41598   -2910011.8    23641.015   -2886370.8     255165.7    1.1620693    49.043936    49.043936    106.08443 
   25000    26484    298.18909    86.223304   -2910001.3    23539.283     -2886462    255498.41     1.160556    49.070125    49.070125     106.1094 
   25100    26484    300.59444    1156.4916   -2910031.2    23729.164     -2886302    255607.19    1.1600621    49.074798    49.074798    106.13437 
   25200    26484    300.73772   -1924.5875   -2909899.7    23740.474   -2886159.2    255552.93    1.1603084    49.063818    49.063818    106.15933 
   25300    26484     301.2039   -1299.1222   -2909919.2    23777.274   -2886141.9    255538.37    1.1603745    49.056652    49.056652     106.1843 
   25400    26484    299.47321   -2778.4021   -2910087.3    23640.652   -2886446.7    255616.07    1.1600218    49.058343    49.058343    106.20927 
   25500    26484    296.84813    175.06627   -2909990.8    23433.426   -2886557.4    255650.41     1.159866    49.055872    49.055872    106.23423 
   25600    26484    298.87762   -618.96605   -2910000.9    23593.636   -2886407.2    255901.19    1.1587293    49.074161    49.074161     106.2592 
   25700    26484    300.75868   -769.45586   -2909951.8    23742.128   -2886209.6    256183.42    1.1574528    49.095447    49.095447    106.28417 
   25800    26484    301.12132    -1041.195   -2909973.4    23770.756   -2886202.6    256280.59    1.1570139    49.098991    49.098991    106.30914 
   25900    26484    300.09013   -1665.5305   -2910015.6    23689.352   -2886326.3    256061.72    1.1580029    49.072259    49.072259     106.3341 
   26000    26484    299.39726   -386.30911   -2909979.8    23634.657   -2886345.2    255764.93    1.1593466    49.038055    49.038055    106.35907 
   26100    26484    299.18009   -2304.7375   -2909983.9    23617.514   -2886366.4    255691.69    1.1596787    49.025279    49.025279    106.38404 
   26200    26484     299.2456   -1139.3481   -2910035.2    23622.684   -2886412.5    255657.49    1.1598339    49.016249    49.016249      106.409 
   26300    26484    298.15455    411.70097   -2910036.1    23536.556   -2886499.6    255781.37    1.1592721    49.022373    49.022373    106.43397 
   26400    26484    298.93429   -499.15739     -2910044     23598.11   -2886445.9    255717.16    1.1595632    49.010471    49.010471    106.45894 
   26500    26484    301.63549    797.49707   -2910071.5    23811.344   -2886260.1    255302.21    1.1614479    48.964949    48.964949     106.4839 
   26600    26484    301.25813   -1145.3163   -2909988.4    23781.556   -2886206.8    254861.08    1.1634582    48.916894    48.916894    106.50887 
   26700    26484     300.4101   -1392.1374   -2910001.6    23714.612     -2886287    254476.09    1.1652184    48.874205    48.874205    106.53384 
   26800    26484    298.12261    479.15087   -2910061.6    23534.035   -2886527.5    254507.51    1.1650745    48.871496    48.871496     106.5588 
   26900    26484    297.83734   -2177.3391   -2910042.5    23511.516     -2886531    254908.96    1.1632397    48.904296    48.904296    106.58377 
   27000    26484    300.61658    2404.7195   -2909990.3    23730.911   -2886259.4    255119.88     1.162278    48.918795    48.918795    106.60874 
   27100    26484    300.35752   -4232.4768   -2909922.1    23710.461   -2886211.6    255168.83     1.162055     48.91776     48.91776    106.63371 
   27200    26484     301.3129   -1895.0279   -2910150.8    23785.879   -2886364.9    255020.46    1.1627311    48.897812    48.897812    106.65867 
   27300    26484    302.94191   -1871.7921   -2910419.2    23914.474   -2886504.8    255011.77    1.1627707    48.891257    48.891257    106.68364 
   27400    26484    300.26444   -534.22104   -2910215.8    23703.113   -2886512.7    255223.39    1.1618066    48.905817    48.905817    106.70861 
   27500    26484    299.66342     527.8006   -2910100.6    23655.667   -2886444.9    255575.19    1.1602074    48.933786    48.933786    106.73357 
   27600    26484    300.51497   -3013.3921   -2910248.3     23722.89   -2886525.4    255675.34    1.1597529     48.93765     48.93765    106.75854 
   27700    26484    296.34421   -411.52119   -2910171.5    23393.647   -2886777.9    255616.41    1.1600202    48.926289    48.926289    106.78351 
   27800    26484    299.06599   -5.4248014   -2910281.4    23608.506   -2886672.9    255698.42    1.1596482    48.928418    48.928418    106.80847 
   27900    26484    300.50863   -576.59186     -2910153     23722.39   -2886430.6     255815.8    1.1591161    48.933928    48.933928    106.83344 
   28000    26484    300.64777   -2640.9584   -2910070.1    23733.373   -2886336.7    255904.32    1.1587152    48.936675    48.936675    106.85841 
   28100    26484    300.67725   -2620.8418   -2910046.4    23735.701   -2886310.7    255792.91    1.1592198    48.920307    48.920307    106.88337 
   28200    26484     299.8124    2081.0514   -2910196.8    23667.428   -2886529.3    255704.84    1.1596191    48.906173    48.906173    106.90834 
   28300    26484    297.39531    1947.2821   -2910235.3    23476.621   -2886758.6    255523.75    1.1604409    48.883145    48.883145    106.93331 
   28400    26484    299.93425   -2188.0023   -2910328.1    23677.048   -2886651.1    255353.36    1.1612153     48.86114     48.86114    106.95827 
   28500    26484    299.19024   -1772.7445   -2910084.4    23618.315   -2886466.1     255256.1    1.1616577    48.846133    48.846133    106.98324 
   28600    26484    299.49856     300.5696   -2910039.1    23642.654   -2886396.4    255127.13    1.1622449    48.828095    48.828095    107.00821 
   28700    26484    300.90477    1668.8497   -2910159.4    23753.661   -2886405.7    254922.71    1.1631769    48.802835    48.802835    107.03318 
   28800    26484    297.96784   -2318.8962   -2910082.8    23521.818   -2886560.9    254900.34     1.163279    48.795004    48.795004    107.05814 
   28900    26484    297.73635   -1894.1798   -2910317.7    23503.543   -2886814.2    255303.52    1.1614419    48.827885    48.827885    107.08311 
   29000    26484     297.3142    1046.9876   -2910408.4    23470.219   -2886938.2    255421.13    1.1609071    48.833438    48.833438    107.10808 
   29100    26484    300.28485    866.24866   -2910256.4    23704.724   -2886551.7     255463.3    1.1607155    48.831778    48.831778    107.13304 
   29200    26484    299.51682    329.36705   -2910008.8    23644.095   -2886364.7    255743.17    1.1594453    48.852827    48.852827    107.15801 
   29300    26484    300.12394   -4990.8565   -2909948.4    23692.022   -2886256.4    255832.71    1.1590395    48.855687    48.855687    107.18298 
   29400    26484    300.23751   -728.07255   -2910000.3    23700.987   -2886299.3    255701.38    1.1596348    48.837459    48.837459    107.20794 
   29500    26484     299.8867    92.618241   -2910169.6    23673.294   -2886496.3    255813.39     1.159127    48.842467    48.842467    107.23291 
   29600    26484    297.55068    562.09565   -2910022.5    23488.886   -2886533.6    256126.73     1.157709    48.866682    48.866682    107.25788 
   29700    26484    301.38197   -680.23316   -2910007.9    23791.332   -2886216.6    256325.96    1.1568091    48.879995    48.879995    107.28284 
   29800    26484    301.20176    63.077095   -2909934.8    23777.106   -2886157.7     256251.3    1.1571462    48.867191    48.867191    107.30781 
   29900    26484    300.20179   -1580.7643   -2909963.7    23698.168   -2886265.6    256052.57    1.1580443    48.842556    48.842556    107.33278 
   30000    26484    299.37227   -3507.1122   -2910048.1    23632.684   -2886415.4    255838.55     1.159013    48.816462    48.816462    107.35775 
   30100    26484    298.41769    624.48546   -2910072.4    23557.329   -2886515.1    255961.03    1.1584584    48.822469    48.822469    107.38271 
   30200    26484    296.72948   -1637.5418   -2910013.2    23424.061   -2886589.1    256163.37    1.1575434    48.836086    48.836086    107.40768 
   30300    26484     300.4876    151.79708   -2910120.4    23720.729   -2886399.7    256188.12    1.1574316    48.832769    48.832769    107.43265 
   30400    26484    300.70822     -680.014   -2909911.8    23738.145   -2886173.6    256233.65    1.1572259    48.831435    48.831435    107.45761 
   30500    26484    300.82232   -1667.1659     -2909893    23747.152   -2886145.8    256306.92    1.1568951    48.832743    48.832743    107.48258 
   30600    26484    299.30883    538.87157   -2909961.3    23627.676   -2886333.6    256215.32    1.1573087    48.818347    48.818347    107.50755 
   30700    26484    298.28254    -503.6988   -2910051.3     23546.66   -2886504.7    256051.57    1.1580488    48.797078    48.797078    107.53251 
   30800    26484    299.92101    1081.2971   -2910114.9    23676.002   -2886438.9    256097.78    1.1578398    48.795817    48.795817    107.55748 
   30900    26484    301.09375    2203.7084   -2910112.8    23768.579   -2886344.2    256107.95    1.1577939    48.791123    48.791123    107.58245 
   31000    26484    299.57611   -460.21107   -2909980.3    23648.776   -2886331.6    256294.51    1.1569511    48.803228    48.803228    107.60741 
   31100    26484    300.05155    1032.6553   -2910059.9    23686.307   -2886373.6    256424.17    1.1563661    48.809909    48.809909    107.63238 
   31200    26484    300.51736   -569.06217   -2910137.5    23723.078   -2886414.4    256582.72    1.1556515    48.819335    48.819335    107.65735 
   31300    26484    298.60101    1814.6962   -2909943.1      23571.8   -2886371.3    256705.03    1.1551009    48.825309    48.825309    107.68232 
   31400    26484    299.40013    1171.0721   -2909947.8    23634.883   -2886312.9    257012.78    1.1537178    48.848905    48.848905    107.70728 
   31500    26484    299.46447   -299.69427   -2909855.2    23639.963   -2886215.3     257145.1    1.1531241    48.855815    48.855815    107.73225 
   31600    26484    300.36884    87.432019   -2909905.4    23711.355   -2886194.1    257207.98    1.1528422    48.856127    48.856127    107.75722 
   31700    26484    299.59435   -771.41747   -2910006.3    23650.215     -2886356    256964.08    1.1539364    48.827301    48.827301    107.78218 
   31800    26484    299.68203   -222.97789   -2910272.7    23657.137   -2886615.6    256748.65    1.1549047    48.801178    48.801178    107.80715 
   31900    26484    298.95138   -1194.7374   -2910186.5    23599.459     -2886587    256157.92     1.157568    48.739361    48.739361    107.83212 
   32000    26484    299.42299     -596.801   -2910034.7    23636.688     -2886398    255889.53    1.1587821    48.708182    48.708182    107.85708 
   32100    26484    301.06094    113.93959   -2910142.3     23765.99   -2886376.3     255751.4     1.159408    48.689399    48.689399    107.88205 
   32200    26484    300.19595   -978.92312   -2910129.7    23697.706     -2886432    255788.95    1.1592378     48.68734     48.68734    107.90702 
   32300    26484    297.48769   -1089.9937   -2909958.3    23483.914   -2886474.4    255958.13    1.1584715    48.697805    48.697805    107.93198 
   32400    26484    300.84171    382.24319   -2909970.8    23748.683   -2886222.1    256020.05    1.1581914    48.698063    48.698063    107.95695 
   32500    26484    300.63687   -268.78493   -2909776.7    23732.513   -2886044.1    256369.59    1.1566123     48.72566     48.72566    107.98192 
   32600    26484    299.95679   -956.25332   -2909776.9    23678.827   -2886098.1    256916.49    1.1541502    48.771967    48.771967    108.00689 
   32700    26484    301.74308   -1760.3749   -2909990.1    23819.838   -2886170.2     257257.8    1.1526189    48.798713    48.798713    108.03185 
   32800    26484    300.14374      -1293.6   -2910047.7    23693.584   -2886354.2    257262.64    1.1525973    48.793534    48.793534    108.05682 
   32900    26484    298.98087     830.5184     -2909995    23601.787   -2886393.2     257009.5    1.1537325    48.763889    48.763889    108.08179 
   33000    26484    301.67769    297.41776   -2910169.6    23814.676   -2886354.9    256866.47    1.1543749    48.744688    48.744688    108.10675 
   33100    26484    301.45098   -1204.3479   -2910098.8     23796.78     -2886302    257027.93    1.1536498    48.754376    48.754376    108.13172 
   33200    26484     298.6348   -2369.3604   -2910054.4    23574.468   -2886479.9    257356.09    1.1521787    48.779859    48.779859    108.15669 
   33300    26484    299.91282   -1199.7913     -2910374    23675.356   -2886698.6    257378.26    1.1520795     48.77633     48.77633    108.18165 
   33400    26484    300.24911    164.83657     -2910405    23701.903   -2886703.1    257391.05    1.1520222    48.771915    48.771915    108.20662 
   33500    26484    297.78308   -3260.6098   -2910042.2    23507.232   -2886534.9    257550.05     1.151311    48.781348    48.781348    108.23159 
   33600    26484    296.73723   -2111.8239   -2909812.1    23424.672   -2886387.4    257819.54    1.1501076    48.801235    48.801235    108.25655 
   33700    26484    299.84159    824.86717   -2909910.6    23669.732   -2886240.9    258159.44    1.1485933    48.827763    48.827763    108.28152 
   33800    26484    303.10968   -2.7895256   -2910021.6    23927.718   -2886093.9    258302.49    1.1479572     48.83566     48.83566    108.30649 
   33900    26484    299.78737    1537.7356   -2909874.5    23665.453   -2886209.1    257914.56    1.1496839    48.793351    48.793351    108.33146 
   34000    26484    297.70636   -1946.4341   -2909950.2    23501.176     -2886449     257566.8    1.1512362    48.754826    48.754826    108.35642 
   34100    26484    299.43008     1272.053   -2910176.8    23637.247   -2886539.6    257535.31    1.1513769     48.74623     48.74623    108.38139 
   34200    26484    300.62145    1944.1137   -2910233.5    23731.295   -2886502.2    257645.05    1.1508865       48.751       48.751    108.40636 
   34300    26484    302.01728    714.17949   -2910246.8    23841.483   -2886405.3       257810    1.1501502    48.760989    48.760989    108.43132 
   34400    26484    299.91676    489.18124   -2910024.2    23675.666   -2886348.6    257928.81    1.1496204    48.766608    48.766608    108.45629 
   34500    26484    301.56175    63.760244     -2909838    23805.523   -2886032.4     258109.9    1.1488138    48.778111    48.778111    108.48126 
   34600    26484    303.12497   -2329.9047   -2909886.8    23928.925   -2885957.9    258094.31    1.1488832    48.771026    48.771026    108.50622 
   34700    26484    300.99204   -2221.9552   -2909913.6     23760.55     -2886153    258102.83    1.1488453    48.766221    48.766221    108.53119 
   34800    26484    301.74937   -1922.9199   -2910089.5    23820.334   -2886269.1    258397.86    1.1475336    48.788473    48.788473    108.55616 
   34900    26484    301.49656    18.145084   -2910171.8    23800.377   -2886371.4    258509.16    1.1470395    48.793368    48.793368    108.58112 
   35000    26484    298.02342     552.9492   -2909964.4    23526.205   -2886438.2    258270.42    1.1480998    48.765226    48.765226    108.60609 
   35100    26484    298.61179   -2042.1749   -2909867.7    23572.651     -2886295    258163.94    1.1485733    48.749569    48.749569    108.63106 
   35200    26484    302.98308    -1055.501   -2909894.8    23917.725   -2885977.1    258211.57    1.1483615    48.748465    48.748465    108.65603 
   35300    26484    301.85823   -2634.7605   -2909936.6    23828.928   -2886107.7    258555.05    1.1468359    48.775274    48.775274    108.68099 
   35400    26484    299.83963    1017.8207   -2909937.2    23669.578   -2886267.7    258609.23    1.1465956    48.774782    48.774782    108.70596 
   35500    26484    298.75409    1715.2019   -2909869.4    23583.885   -2886285.5    258540.65    1.1468998    48.762715    48.762715    108.73093 
   35600    26484     300.0671    -2684.846   -2909998.1    23687.534   -2886310.5    258434.99    1.1473687    48.747153    48.747153    108.75589 
   35700    26484    298.72302    775.92625   -2910124.4    23581.432     -2886543    258193.89    1.1484401    48.718817    48.718817    108.78086 
   35800    26484    297.70711   -1228.6698   -2910151.9    23501.235   -2886650.7    257991.87    1.1493394    48.694166    48.694166    108.80583 
   35900    26484    298.62486    454.86553   -2910006.6    23573.683   -2886432.9    257705.22    1.1506178    48.661525    48.661525    108.83079 
   36000    26484    302.16806   -1566.2885   -2910117.5    23853.386   -2886264.1    257646.06     1.150882    48.650358    48.650358    108.85576 
   36100    26484    299.60156     679.5896   -2910017.6    23650.785   -2886366.8    257617.27    1.1510106    48.642062    48.642062    108.88073 
   36200    26484    298.64701   -224.03375   -2910011.9    23575.432   -2886436.5    257697.71    1.1506513    48.644079    48.644079    108.90569 
   36300    26484     299.9775   -1441.7398   -2910117.4    23680.462     -2886437    258042.55    1.1491136    48.671036    48.671036    108.93066 
   36400    26484    300.66841   -823.54292   -2910165.7    23735.002   -2886430.7    258188.19    1.1484654    48.679191    48.679191    108.95563 
   36500    26484     300.2965   -2024.1416   -2910082.5    23705.644   -2886376.9    258056.27    1.1490525    48.661179    48.661179     108.9806 
   36600    26484    303.30824   -2141.6937   -2910284.1    23943.393   -2886340.7    257996.13    1.1493204    48.649935    48.649935    109.00556 
   36700    26484     299.0161   -741.21928     -2910099    23604.568   -2886494.4    258109.21    1.1488169    48.655024    48.655024    109.03053 
   36800    26484    298.23667   -390.22781   -2910115.1    23543.039   -2886572.1    258119.82    1.1487697    48.650454    48.650454     109.0555 
   36900    26484    300.92314     376.4927   -2910093.9    23755.111   -2886338.8    258093.58    1.1488865    48.642413    48.642413    109.08046 
   37000    26484    300.41289   -354.40346   -2909841.3    23714.831   -2886126.4    258090.65    1.1488995    48.636571    48.636571    109.10543 
   37100    26484    299.06269    734.08312   -2909741.5    23608.246   -2886133.2    257975.55    1.1494121    48.620162    48.620162     109.1304 
   37200    26484    300.21731   -1258.0379   -2909937.4    23699.393     -2886238    257878.97    1.1498426      48.6055      48.6055    109.15536 
   37300    26484    300.13247   -2323.7132   -2910137.5    23692.695   -2886444.8    257631.25    1.1509482    48.576595    48.576595    109.18033 
   37400    26484    296.40326    445.64889   -2910142.2    23398.308   -2886743.9    257569.42    1.1512245    48.565213    48.565213     109.2053 
   37500    26484    299.36794   -1526.7258   -2910254.3    23632.342   -2886621.9    257674.44    1.1507553    48.569561    48.569561    109.23026 
   37600    26484    299.86009   -1548.2144     -2910103    23671.193   -2886431.8    257655.11    1.1508416     48.56219     48.56219    109.25523 
   37700    26484    301.31907    1639.3266   -2910067.2    23786.367   -2886280.8    257397.53    1.1519932    48.532365    48.532365     109.2802 
   37800    26484    299.83423   -1328.3742   -2909937.5    23669.152   -2886268.3    257491.61    1.1515723    48.535689    48.535689    109.30517 
   37900    26484     297.6449    1383.0247   -2910035.1    23496.324   -2886538.8    257538.43     1.151363    48.534559    48.534559    109.33013 
   38000    26484    301.83494    201.65268   -2910495.7     23827.09   -2886668.6    257469.69    1.1516704    48.522541    48.522541     109.3551 
   38100    26484    298.96735   -2576.8968   -2910213.8     23600.72     -2886613     257699.8     1.150642    48.538678    48.538678    109.38007 
   38200    26484     300.4625   -1092.9195   -2910146.5    23718.748   -2886427.8    257951.04    1.1495213    48.556793    48.556793    109.40503 
   38300    26484    301.35578   -649.83612   -2910090.4    23789.264   -2886301.1     257901.5    1.1497421    48.546591    48.546591       109.43 
   38400    26484     301.9223   -3971.7021   -2910133.5    23833.986   -2886299.5    257940.24    1.1495694    48.544699    48.544699    109.45497 
   38500    26484    298.60322   -2608.5428   -2910040.3    23571.975   -2886468.3    258020.59    1.1492114    48.546723    48.546723    109.47993 
   38600    26484     298.2014    -351.9989   -2910183.1    23540.255   -2886642.9    258112.48    1.1488023    48.549831    48.549831     109.5049 
   38700    26484    299.37065   -1490.2595   -2910214.2    23632.556   -2886581.6    258207.07    1.1483815    48.553191    48.553191    109.52987 
   38800    26484    300.20892   -4225.5333   -2909934.3     23698.73   -2886235.6    258189.45    1.1484598    48.546002    48.546002    109.55483 
   38900    26484    302.14246   -1838.4783   -2909990.4    23851.365   -2886139.1    257815.86     1.150124    48.505341    48.505341     109.5798 
   39000    26484    299.68159    -1504.715   -2909875.3    23657.102   -2886218.2    257716.38     1.150568    48.490458    48.490458    109.60477 
   39100    26484     298.2124   -1172.8328   -2909940.9    23541.123   -2886399.8    257541.92    1.1513474    48.468523    48.468523    109.62974 
   39200    26484    300.45791   -1271.9581     -2910290    23718.385   -2886571.7     257525.6    1.1514203    48.461469    48.461469     109.6547 
   39300    26484    300.69124   -990.48954   -2910211.6    23736.805   -2886474.8     257642.2    1.1508993    48.466921    48.466921    109.67967 
   39400    26484    300.75109    139.57379   -2909925.5    23741.529     -2886184    257688.71    1.1506915     48.46578     48.46578    109.70464 
   39500    26484    302.73985    -1793.716   -2910028.2    23898.524   -2886129.7    257875.78    1.1498568    48.477853    48.477853     109.7296 
   39600    26484    302.79271    -1622.686   -2910205.8    23902.697   -2886303.1    258219.86    1.1483246    48.504666    48.504666    109.75457 
   39700    26484    298.76922   -961.12467   -2910119.3    23585.079   -2886534.3    258469.15     1.147217    48.522555    48.522555    109.77954 
   39800    26484    299.40969   -165.27398   -2910106.7    23635.638   -2886471.1    258625.19    1.1465249    48.531681    48.531681     109.8045 
   39900    26484    300.78959   -1524.9063   -2910033.7    23744.569   -2886289.1    258691.57    1.1462307    48.532392    48.532392    109.82947 
   40000    26484    298.68558   -971.08908   -2909810.1    23578.476   -2886231.6    258636.43     1.146475    48.521704    48.521704    109.85444 
   40100    26484    300.86775   -946.02669   -2909944.4    23750.739   -2886193.7    258611.81    1.1465842    48.513883    48.513883     109.8794 
   40200    26484    298.57677   -2866.0203   -2909915.7    23569.887   -2886345.8     258703.7    1.1461769    48.516989    48.516989    109.90437 
   40300    26484    298.81377   -1685.1611   -2910079.2    23588.596   -2886490.6     258685.6    1.1462572    48.509781    48.509781    109.92934 
   40400    26484    299.19389   -803.71851   -2910057.4    23618.603   -2886438.8    258578.31    1.1467327    48.494215    48.494215    109.95431 
   40500    26484    300.99748   -1106.9437     -2909921     23760.98     -2886160    258600.63    1.1466338    48.490802    48.490802    109.97927 
   40600    26484    301.33316    949.89892   -2909857.9    23787.478   -2886070.4    258728.13    1.1460687     48.49725     48.49725    110.00424 
   40700    26484    300.65671   -505.26519   -2909934.5    23734.079   -2886200.4    258578.67    1.1467312    48.477739    48.477739    110.02921 
   40800    26484    298.37193    -203.8942   -2909873.2    23553.717   -2886319.5    258469.63    1.1472149    48.462019    48.462019    110.05417 
   40900    26484    299.76425   -1842.1334   -2909960.4    23663.627   -2886296.8    258796.86    1.1457643    48.487187    48.487187    110.07914 
   41000    26484    299.61057   -975.08991   -2909849.9    23651.496   -2886198.4    259243.42    1.1437907    48.523499    48.523499    110.10411 
   41100    26484    300.97854    199.34417   -2909802.5    23759.484   -2886043.1     259461.6    1.1428289     48.53841     48.53841    110.12907 
   41200    26484    302.11206    -2021.669   -2909742.5    23848.965   -2885893.5    259606.01    1.1421932    48.546414    48.546414    110.15404 
   41300    26484    301.90434   -681.39401   -2909644.5    23832.568   -2885811.9    259555.85    1.1424139    48.536224    48.536224    110.17901 
   41400    26484     300.5007     1715.224   -2909760.6    23721.763   -2886038.9    259302.76    1.1435289    48.507059    48.507059    110.20397 
   41500    26484    300.40765   -240.53255   -2909996.8    23714.418   -2886282.4    259136.13    1.1442643    48.485979    48.485979    110.22894 
   41600    26484    298.56385   -2670.3691   -2909929.5    23568.867   -2886360.6    259065.87    1.1445746    48.473916    48.473916    110.25391 
   41700    26484    300.22797    230.52577   -2910113.7    23700.234   -2886413.5    258759.33    1.1459305    48.439744    48.439744    110.27887 
   41800    26484    300.39117    343.47404   -2910127.9    23713.117   -2886414.8    258700.21    1.1461924    48.428729    48.428729    110.30384 
   41900    26484    300.03125    144.99104   -2909919.6    23684.705   -2886234.9    258899.53      1.14531      48.4419      48.4419    110.32881 
   42000    26484    300.10409    -613.0346   -2909715.3    23690.455   -2886024.9    259116.09    1.1443528    48.456673    48.456673    110.35378 
   42100    26484    300.64765    760.30487   -2909750.9    23733.364   -2886017.5    259179.37    1.1440734    48.457108    48.457108    110.37874 
   42200    26484    298.85044    -1044.425   -2909891.3    23591.491   -2886299.8     259309.2    1.1435005    48.463763    48.463763    110.40371 
   42300    26484    297.16344   -37.550014   -2909890.4    23458.317     -2886432    259458.36    1.1428432    48.472219    48.472219    110.42868 
   42400    26484    298.72792   -2473.8442   -2909906.6    23581.819   -2886324.7    259594.29    1.1422448    48.479434    48.479434    110.45364 
   42500    26484    299.35577   -1125.9695   -2909745.9    23631.381   -2886114.5    259614.06    1.1421577    48.475802    48.475802    110.47861 
   42600    26484    302.05258   -1198.2502   -2909834.5     23844.27   -2885990.2     259506.6    1.1426307    48.460293    48.460293    110.50358 
   42700    26484    302.30683   -184.72059   -2909916.5    23864.341   -2886052.1    259484.48    1.1427281    48.452754    48.452754    110.52854 
   42800    26484    300.19989    1475.8229   -2909948.5    23698.017   -2886250.5    259380.48    1.1431863    48.437573    48.437573    110.55351 
   42900    26484    296.36383    1116.0458     -2909722    23395.196   -2886326.8    259175.48    1.1440905    48.412962    48.412962    110.57848 
   43000    26484     298.9005   -1165.4886   -2909832.9    23595.443   -2886237.4    258828.88    1.1456226    48.375118    48.375118    110.60344 
   43100    26484    302.30589   -197.05197   -2909933.8    23864.266   -2886069.5    258859.46    1.1454873    48.372516    48.372516    110.62841 
   43200    26484    301.13541   -900.85274   -2909898.7    23771.868   -2886126.8    259051.21    1.1446394     48.38497     48.38497    110.65338 
   43300    26484    299.10204   -1882.3817   -2910057.8    23611.352   -2886446.5    259122.51    1.1443244     48.38617     48.38617    110.67835 
   43400    26484    297.42429   -1389.3721   -2909913.3    23478.909   -2886434.4    259250.82     1.143758     48.39269     48.39269    110.70331 
   43500    26484    299.20502   -1605.7492   -2909888.2    23619.481   -2886268.7    259326.53    1.1434241    48.394298    48.394298    110.72828 
   43600    26484    298.89971    168.13192   -2909765.6     23595.38   -2886170.2    259386.41    1.1431602     48.39443     48.39443    110.75325 
   43700    26484    300.70515    3.9541322   -2909904.5    23737.903   -2886166.6    259398.24     1.143108    48.390079    48.390079    110.77821 
   43800    26484    300.24772   -2695.6118   -2909887.9    23701.793   -2886186.1    259523.51    1.1425563    48.396309    48.396309    110.80318 
   43900    26484    298.88212    1112.4038   -2909778.1    23593.992   -2886184.1    259379.13    1.1431923    48.377395    48.377395    110.82815 
   44000    26484    299.76182   -1798.4285   -2909829.4    23663.436   -2886165.9    259230.11    1.1438494    48.358049    48.358049    110.85311 
   44100    26484    298.04656   -138.50259   -2909721.9    23528.032   -2886193.9    258998.06    1.1448743    48.330958    48.330958    110.87808 
   44200    26484    301.93687    -742.1014   -2909915.3    23835.136   -2886080.2    258895.21    1.1453291    48.315922    48.315922    110.90305 
   44300    26484    301.27871   -1365.4486   -2909780.2     23783.18     -2885997    258757.23    1.1459398    48.297608    48.297608    110.92801 
   44400    26484    299.13853   -540.62902   -2909714.9    23614.233   -2886100.7    258715.46    1.1461248    48.288276    48.288276    110.95298 
   44500    26484    298.34715    511.71049   -2909881.1    23551.761   -2886329.4    258875.48    1.1454164    48.297774    48.297774    110.97795 
   44600    26484    299.89868   -1051.3495   -2910081.4    23674.239   -2886407.1    258844.44    1.1455538    48.289446    48.289446    111.00292 
   44700    26484    299.98167   -454.39224     -2909987    23680.791   -2886306.2    258805.24    1.1457272     48.28036     48.28036    111.02788 
   44800    26484    300.94966   -302.88189   -2909714.6    23757.205   -2885957.4    258934.57     1.145155    48.286994    48.286994    111.05285 
   44900    26484     300.6137   -338.79991   -2909673.3    23730.684   -2885942.6    259257.96    1.1437266    48.311707    48.311707    111.07782 
   45000    26484    301.08769   -325.30993     -2909881    23768.101   -2886112.9    259480.21    1.1427469     48.32698     48.32698    111.10278 
   45100    26484    298.45687   -2040.7803   -2909875.7    23560.422   -2886315.2    259752.93    1.1415471    48.346937    48.346937    111.12775 
   45200    26484    300.39597    344.84084   -2910001.3    23713.496   -2886287.8    259688.36     1.141831    48.335498    48.335498    111.15272 
   45300    26484    299.37793   -1476.4513   -2909850.7    23633.131   -2886217.6    259638.73    1.1420492    48.325452    48.325452    111.17768 
   45400    26484    301.21527   -797.28248   -2909888.8    23778.172   -2886110.6    259488.44    1.1427107     48.30604     48.30604    111.20265 
   45500    26484    299.57156   -1088.7851   -2909777.2    23648.416   -2886128.7    259261.83    1.1437095    48.279523    48.279523    111.22762 
   45600    26484    301.35034   -1574.2403     -2910064    23788.834   -2886275.2    258937.78    1.1451408    48.243927    48.243927    111.25258 
   45700    26484    298.29583   -337.37541     -2909927     23547.71   -2886379.3    258844.87    1.1455518    48.229859    48.229859    111.27755 
   45800    26484    297.08197   -1317.8545   -2909681.9    23451.886     -2886230    258827.41    1.1456291    48.222824    48.222824    111.30252 
   45900    26484    303.63321   -2152.3888   -2909949.6    23969.046   -2885980.5    259029.74    1.1447342    48.236259    48.236259    111.32749 
   46000    26484    300.20387   -1119.2439   -2909815.4    23698.332     -2886117    259227.64    1.1438603    48.249272    48.249272    111.35245 
   46100    26484    298.66576   -934.75168   -2909787.1    23576.912   -2886210.2    259282.53    1.1436182    48.248971    48.248971    111.37742 
   46200    26484    299.21743   -2807.8578   -2909884.9    23620.461   -2886264.4    259202.99    1.1439691    48.236163    48.236163    111.40239 
   46300    26484    298.74432   -701.82633   -2909895.2    23583.114     -2886312    259244.82    1.1437845    48.234651    48.234651    111.42735 
   46400    26484    299.78731   -2706.1738   -2910010.9    23665.448   -2886345.5    259455.25    1.1428568    48.248818    48.248818    111.45232 
   46500    26484    299.60964   -538.01797   -2910032.5    23651.422   -2886381.1    259603.17    1.1422057    48.257165    48.257165    111.47729 
   46600    26484    299.10618   -3390.2704   -2909827.5    23611.679   -2886215.8    259734.56    1.1416279    48.263971    48.263971    111.50225 
   46700    26484     301.5448   -2173.8921   -2909822.1    23804.186     -2886018    259695.24    1.1418007    48.254915    48.254915    111.52722 
   46800    26484    301.47581   -302.44598   -2909826.4    23798.739   -2886027.7    259657.34    1.1419674    48.245994    48.245994    111.55219 
   46900    26484    297.91012   -389.23021   -2909713.4    23517.261   -2886196.1    259583.09     1.142294    48.233698    48.233698    111.57715 
   47000    26484    299.50649   -95.666218   -2910167.8     23643.28   -2886524.6    259812.08    1.1412873    48.249569    48.249569    111.60212 
   47100    26484    298.46398    1582.6731   -2910117.3    23560.983   -2886556.3    259994.81    1.1404851    48.261136    48.261136    111.62709 
   47200    26484    298.80475   -557.56317     -2909955    23587.884   -2886367.2     260167.5    1.1397281    48.271763    48.271763    111.65206 
   47300    26484    299.74889   -721.40113   -2909899.1    23662.415   -2886236.7    260070.96    1.1401512     48.25741     48.25741    111.67702 
   47400    26484    300.64575   -731.39382   -2909932.2    23733.214     -2886199    259897.91    1.1409104    48.235961    48.235961    111.70199 
   47500    26484    301.37219    2187.6739   -2909826.8    23790.559   -2886036.2    259714.29     1.141717    48.213531    48.213531    111.72696 
   47600    26484     302.8698   -966.61603   -2909769.2    23908.782   -2885860.4    259535.34    1.1425042    48.191534    48.191534    111.75192 
   47700    26484    302.10047    1096.9313   -2909674.3     23848.05   -2885826.2    259532.75    1.1425156    48.185911    48.185911    111.77689 
   47800    26484    301.00337   -1742.7483   -2909912.5    23761.445   -2886151.1    259643.74    1.1420272    48.190831    48.190831    111.80186 
   47900    26484    298.63334   -368.48358   -2909811.4    23574.353     -2886237    259874.21    1.1410144    48.206832    48.206832    111.82682 
   48000    26484    300.53396   -3027.7744   -2909746.7    23724.389   -2886022.3    260112.93    1.1399672    48.223586    48.223586    111.85179 
   48100    26484    302.15822   -400.51533   -2909757.7    23852.609   -2885905.1     260273.6    1.1392635    48.233094    48.233094    111.87676 
   48200    26484     301.1995    33.494267   -2909735.1    23776.927   -2885958.2    260244.37    1.1393915    48.225005    48.225005    111.90172 
   48300    26484    298.11324   -535.14214   -2909735.8    23533.295   -2886202.5    260303.97    1.1391306    48.225147    48.225147    111.92669 
   48400    26484    298.39749   -376.05429     -2909970    23555.734   -2886414.3     260519.4    1.1381886    48.239719    48.239719    111.95166 
   48500    26484    297.58097   -423.57441   -2909839.4    23491.277   -2886348.2     260665.8    1.1375493    48.247892    48.247892    111.97663 
   48600    26484    298.85878    221.83008   -2909779.2    23592.149   -2886187.1    260608.03    1.1378015    48.237167    48.237167    112.00159 
   48700    26484    299.92318   -1480.9352   -2909738.8    23676.174   -2886062.6    260462.31    1.1384381    48.218305    48.218305    112.02656 
   48800    26484    301.57704   -570.67707   -2909910.6     23806.73   -2886103.8    260368.18    1.1388497     48.20422     48.20422    112.05153 
   48900    26484    300.23253     148.6982   -2910086.5    23700.594   -2886385.9    260463.52    1.1384328    48.207675    48.207675    112.07649 
   49000    26484    298.92745   -535.31383   -2910125.8     23597.57   -2886528.2    260482.91    1.1383481      48.2041      48.2041    112.10146 
   49100    26484    297.43618    -1007.251   -2909885.6    23479.848   -2886405.8    260665.88     1.137549    48.215659    48.215659    112.12643 
   49200    26484    299.40619    593.30566     -2909840    23635.362   -2886204.6    260700.78    1.1373967    48.213519    48.213519    112.15139 
   49300    26484    303.72955   -1659.7103   -2910074.4    23976.651   -2886097.8    260674.17    1.1375129    48.205692    48.205692    112.17636 
   49400    26484    299.89433    1247.8995   -2909854.9    23673.896     -2886181    260555.31    1.1380317    48.189339    48.189339    112.20133 
   49500    26484    299.60996   -2162.6175   -2909976.4    23651.447     -2886325    261038.12    1.1359269      48.2286      48.2286    112.22629 
   49600    26484     296.9417   -285.98176   -2910073.3    23440.813   -2886632.5    261423.84    1.1342508    48.258852    48.258852    112.25126 
   49700    26484    295.91735    573.34485   -2909888.5     23359.95   -2886528.5    261580.15    1.1335731    48.267908    48.267908    112.27623 
   49800    26484    300.00258    -2244.603   -2909979.6    23682.441   -2886297.1    261573.99    1.1335998    48.261975    48.261975     112.3012 
   49900    26484    299.27431    -2165.101   -2909779.3    23624.951   -2886154.4    261851.41    1.1323987    48.282195    48.282195    112.32616 
   50000    26484    300.77624   -2566.2764   -2909814.8    23743.515   -2886071.3    261980.85    1.1318393     48.28876     48.28876    112.35113 
   50100    26484     300.2713    862.23054   -2909787.4    23703.655   -2886083.7    261631.72    1.1333496    48.251212    48.251212     112.3761 
   50200    26484    301.12975   -618.70238   -2909858.7    23771.421   -2886087.3    261334.95    1.1346367    48.218482    48.218482    112.40106 
   50300    26484     299.5913   -458.96303   -2909782.8    23649.975   -2886132.8    261165.78    1.1353716    48.197521    48.197521    112.42603 
   50400    26484    299.69117    60.953304   -2909897.6    23657.858   -2886239.8    261052.84    1.1358628    48.181748    48.181748      112.451 
   50500    26484    296.73562   -2528.1885   -2909663.1    23424.545   -2886238.6    260892.86    1.1365593    48.161637    48.161637    112.47596 
   50600    26484    300.96614   -17.149561   -2909698.9    23758.506   -2885940.4    261062.59    1.1358204    48.171954    48.171954    112.50093 
   50700    26484    301.18372   -1318.5558   -2909632.4    23775.681   -2885856.7    261081.43    1.1357384    48.168348    48.168348     112.5259 
   50800    26484    299.94858   -2306.6468   -2909618.6    23678.179   -2885940.4    261152.72    1.1354284     48.16958     48.16958    112.55086 
   50900    26484      300.168    157.00576   -2909880.6      23695.5   -2886185.1    261286.71    1.1348461    48.176592    48.176592    112.57583 
   51000    26484     299.0156   -725.91686   -2909899.6    23604.528   -2886295.1    261455.92    1.1341117    48.186847    48.186847     112.6008 
   51100    26484    298.78305   -2015.9487   -2909814.1    23586.171   -2886227.9    261381.82    1.1344332    48.174677    48.174677    112.62577 
   51200    26484    299.40924     27.06916   -2909680.1    23635.603   -2886044.4    261466.41    1.1340662    48.177132    48.177132    112.65073 
   51300    26484    300.47661   -2483.1068   -2909702.5    23719.861   -2885982.6    261801.22    1.1326159    48.202626    48.202626     112.6757 
   51400    26484    298.98839   -639.45247     -2909747     23602.38   -2886144.7     261974.2     1.131868    48.213207    48.213207    112.70067 
[...]
  231900    26484    299.92935    -984.1967     -2910245    23676.661   -2886568.3    349173.54   0.84920586    47.045059    47.045059    157.76595 
  232000    26484     298.8998   -539.07719   -2910316.7    23595.387   -2886721.4    349146.12   0.84927255     47.03949     47.03949    157.79092 
  232100    26484    299.55066   -1006.9719   -2910601.9    23646.767   -2886955.2    349094.41   0.84939833    47.032286    47.032286    157.81589 
  232200    26484    299.15067    242.78997   -2910512.6    23615.191   -2886897.4    348990.86   0.84965038    47.021591    47.021591    157.84085 
  232300    26484     300.0997    344.35377   -2910285.5    23690.108   -2886595.4    348982.58   0.84967052    47.017315    47.017315    157.86582 
  232400    26484    300.10351   -2782.5988     -2910184    23690.409   -2886493.6    349003.49   0.84961962    47.015006    47.015006    157.89079 
  232500    26484    300.65523   -53.581118   -2910119.1    23733.962   -2886385.1    349356.07   0.84876216    47.035029    47.035029    157.91575 
  232600    26484    299.69346    98.315982   -2910007.9    23658.039   -2886349.8     349950.6   0.84732021    47.071313    47.071313    157.94072 
  232700    26484    302.08086     409.0403   -2910181.1    23846.503   -2886334.6    350280.74   0.84652161    47.089789    47.089789    157.96569 
  232800    26484    298.28364     -422.358   -2910077.5    23546.747   -2886530.8    350455.61   0.84609922     47.09782     47.09782    157.99065 
  232900    26484    297.46212   -684.02037   -2910129.3    23481.895   -2886647.4    350556.21   0.84585641    47.100858    47.100858    158.01562 
  233000    26484     299.1855   -442.82449   -2910120.3    23617.941   -2886502.4    350618.44   0.84570627    47.101318    47.101318    158.04059 
  233100    26484    301.77262    117.84225     -2910112     23822.17   -2886289.8    350401.32   0.84623029    47.083013    47.083013    158.06556 
  233200    26484    301.08168    1668.5099   -2910082.9    23767.626   -2886315.3    350107.08   0.84694149    47.059524    47.059524    158.09052 
  233300    26484    299.38664   -430.48317     -2910019    23633.819   -2886385.2    349929.16   0.84737213     47.04385     47.04385    158.11549 
  233400    26484    300.27494   -656.45807   -2910127.3    23703.942   -2886423.3    349839.26   0.84758987    47.034094    47.034094    158.14046 
  233500    26484    299.97381   -724.48338     -2910126     23680.17   -2886445.8    349893.04    0.8474596    47.033996    47.033996    158.16542 
  233600    26484    299.46159   -629.56518   -2910307.4    23639.735   -2886667.7    349988.55   0.84722832    47.036703    47.036703    158.19039 
  233700    26484     295.6177     459.0019   -2910216.4    23336.296   -2886880.1    349888.33   0.84747101    47.026257    47.026257    158.21536 
  233800    26484    298.14519   -1061.9322   -2910182.4    23535.818   -2886646.5    350000.63   0.84719908    47.030093    47.030093    158.24032 
  233900    26484      298.393   -624.93359     -2909989     23555.38   -2886433.6    350428.26   0.84616525    47.055102    47.055102    158.26529 
  234000    26484    301.37249    1626.1416   -2910113.6    23790.583     -2886323    350941.78   0.84492709    47.085853    47.085853    158.29026 
  234100    26484    300.35075   -687.67587   -2910085.6    23709.926   -2886375.7    351174.96   0.84436605    47.097779    47.097779    158.31522 
  234200    26484    296.74113    831.07675   -2910054.4     23424.98   -2886629.4    350901.43   0.84502424    47.075722    47.075722    158.34019 
  234300    26484    298.22243   -1364.3684   -2910277.8    23541.915   -2886735.8    350878.72   0.84507892    47.070488    47.070488    158.36516 
  234400    26484    300.63455   -1143.6974   -2910279.9     23732.33   -2886547.6    351006.15   0.84477214    47.075323    47.075323    158.39013 
  234500    26484    300.24549    2149.7606     -2909945    23701.617   -2886243.4    351015.64   0.84474928     47.07225     47.07225    158.41509 
  234600    26484    302.88479   -1019.9194   -2910166.6    23909.965   -2886256.6    351516.97   0.84354451    47.102141    47.102141    158.44006 
  234700    26484    301.10673   -2438.6404   -2910251.1    23769.604   -2886481.5    351512.37   0.84355555    47.098123    47.098123    158.46503 
  234800    26484    297.05264     486.3655   -2910062.9    23449.571   -2886613.3    351109.84   0.84452264     47.06744     47.06744    158.48999 
  234900    26484    298.90898    -1462.625   -2910130.4    23596.112   -2886534.3    351178.83   0.84435674    47.068357    47.068357    158.51496 
  235000    26484    299.81556   -1113.7297   -2910096.2    23667.678   -2886428.6    351501.45   0.84358177    47.086264    47.086264    158.53993 
  235100    26484    300.52154   -889.81827   -2910164.2    23723.408   -2886440.8    351347.78   0.84395072    47.072264    47.072264    158.56489 
  235200    26484    300.26339    700.21673   -2910188.9     23703.03   -2886485.9    351087.41    0.8445766    47.051115    47.051115    158.58986 
  235300    26484    299.00462   -646.64552   -2910141.1    23603.661   -2886537.5    351188.12   0.84433442    47.054159    47.054159    158.61483 
  235400    26484    300.84757    1539.8321     -2910272    23749.145   -2886522.8    351171.99    0.8443732    47.049376    47.049376    158.63979 
  235500    26484    299.73446    -2566.145   -2910173.1    23661.276   -2886511.8    351288.35    0.8440935    47.053468    47.053468    158.66476 
  235600    26484    298.71661    834.13558   -2910190.3    23580.926   -2886609.4    351233.74   0.84422475    47.046108    47.046108    158.68973 
  235700    26484    298.11486   -39.047813   -2910206.1    23533.423   -2886672.7    351372.78   0.84389069    47.051718    47.051718     158.7147 
  235800    26484    299.19418    316.11577   -2910181.5    23618.625   -2886562.9    351329.28   0.84399516    47.045106    47.045106    158.73966 
  235900    26484    301.44444   -258.83862   -2910156.4    23796.263   -2886360.1    351199.88   0.84430613    47.032743    47.032743    158.76463 
  236000    26484    301.12584   -545.16762   -2910137.3    23771.112   -2886366.2     350758.8   0.84536785    46.999503    46.999503     158.7896 
  236100    26484    299.02586   -2052.9062   -2910258.3    23605.338   -2886652.9    350489.25     0.846018    46.977747    46.977747    158.81456 
  236200    26484    298.08628     878.8624   -2910292.8    23531.167   -2886761.6    350682.04    0.8455529    46.986973    46.986973    158.83953 
  236300    26484    301.34875   -1148.1344   -2910400.5    23788.709   -2886611.8    351274.66   0.84412639    47.022963    47.022963     158.8645 
  236400    26484    300.02939   -101.63531   -2910281.7    23684.558   -2886597.1    351508.12   0.84356575     47.03489     47.03489    158.88946 
  236500    26484    299.99134    1150.1361   -2910157.3    23681.554   -2886475.7    351585.62   0.84337982    47.036379    47.036379    158.91443 
  236600    26484    301.54509   -1758.4124   -2910068.3    23804.209   -2886264.1     351656.3   0.84321031    47.037412    47.037412     158.9394 
  236700    26484    301.54513   -367.25204   -2909744.7    23804.211   -2885940.5    351685.16    0.8431411    47.035648    47.035648    158.96436 
  236800    26484    305.32893    184.19933   -2910030.2    24102.907   -2885927.2    351641.44   0.84324592    47.029032    47.029032    158.98933 
  236900    26484    301.26017    764.39952   -2909990.5    23781.717   -2886208.7    351830.21   0.84279351    47.037959    47.037959     159.0143 
  237000    26484    300.68599   -1314.3823   -2910135.6     23736.39   -2886399.3    352263.36   0.84175719    47.063211    47.063211    159.03927 
  237100    26484    299.68437   0.41697219   -2910224.9    23657.322   -2886567.6    352619.68   0.84090658    47.083313    47.083313    159.06423 
  237200    26484    297.90019   -389.06369   -2910143.3    23516.477   -2886626.8    353233.81    0.8394446    47.120597    47.120597     159.0892 
  237300    26484    299.15378    294.27262   -2910118.9    23615.437   -2886503.5    353603.47   0.83856703    47.141548    47.141548    159.11417 
  237400    26484    302.27502      958.509   -2910152.9     23861.83   -2886291.1    353685.75   0.83837196    47.143333    47.143333    159.13913 
  237500    26484    301.13093   -1515.9047   -2909987.5    23771.515     -2886216    354032.51   0.83755081    47.162738    47.162738     159.1641 
  237600    26484    301.87625     223.0724   -2910094.8    23830.351   -2886264.5    354345.65   0.83681066    47.179891    47.179891    159.18907 
  237700    26484    299.43556   -1114.9761   -2910149.4     23637.68   -2886511.7    354248.22   0.83704081    47.169705    47.169705    159.21403 
  237800    26484    299.45097    1833.7412   -2910254.9    23638.897     -2886616    354110.53   0.83736626    47.156841    47.156841      159.239 
  237900    26484    299.74154     84.21269   -2910209.5    23661.835   -2886547.7    353942.76   0.83776319    47.141973    47.141973    159.26397 
  238000    26484    301.05326   -411.72153   -2910164.3    23765.383   -2886398.9    353417.36   0.83900863    47.103278    47.103278    159.28893 
  238100    26484    302.65248   -17.993922   -2910039.3    23891.627   -2886147.7    353385.08   0.83908527    47.097436    47.097436     159.3139 
  238200    26484    303.35148    538.40457   -2910127.5    23946.806   -2886180.7    353618.35   0.83853175    47.109287    47.109287    159.33887 
  238300    26484    300.96084    91.362024   -2910233.8    23758.088   -2886475.7    353668.21   0.83841353    47.108918    47.108918    159.36383 
  238400    26484     299.1936    822.34136     -2910167     23618.58   -2886548.4     353412.1   0.83902111    47.088169    47.088169     159.3888 
  238500    26484    300.17688   -748.51727   -2910244.6    23696.201   -2886548.4     353415.7   0.83901256    47.084722    47.084722    159.41377 
  238600    26484    299.75394    491.86083   -2910078.2    23662.814   -2886415.4    353648.43   0.83846044    47.096534    47.096534    159.43874 
  238700    26484    301.23078    197.39185   -2909951.9    23779.397   -2886172.5    353978.26   0.83767916    47.114802    47.114802     159.4637 
  238800    26484    299.81744    348.68217   -2909826.5    23667.826   -2886158.7     353869.2   0.83793733    47.103856    47.103856    159.48867 
  238900    26484     300.2936    275.08595   -2910126.4    23705.415   -2886420.9     353923.2   0.83780949    47.103763    47.103763    159.51364 
  239000    26484    297.59324   -64.227008   -2910120.4    23492.246   -2886628.1    354190.64   0.83717688     47.11787     47.11787     159.5386 
  239100    26484     301.1843   -1395.2564   -2910336.3    23775.728   -2886560.6    354561.61   0.83630096     47.13885     47.13885    159.56357 
  239200    26484    302.31786   -265.56526   -2910382.1    23865.211   -2886516.9    354602.09    0.8362055    47.137853    47.137853    159.58854 
  239300    26484    299.58887   -103.73793   -2910122.8    23649.783     -2886473    354465.98   0.83652659    47.125119    47.125119     159.6135 
  239400    26484    301.89513    56.743575   -2910148.7    23831.841   -2886316.9    354441.08   0.83658536    47.119779    47.119779    159.63847 
  239500    26484    300.99744   -1770.9009   -2909986.8    23760.976   -2886225.8    354896.61   0.83551153    47.146362    47.146362    159.66344 
  239600    26484    298.66642   -2164.5531   -2909996.2    23576.964   -2886419.2    355389.95   0.83435171    47.175432    47.175432     159.6884 
  239700    26484    299.56863   -1617.1732   -2910244.7    23648.185   -2886596.5    355346.68   0.83445331    47.168872    47.168872    159.71337 
  239800    26484    300.65198   -2025.2103   -2910245.2    23733.706   -2886511.5    355085.64   0.83506675    47.147859    47.147859    159.73834 
  239900    26484    302.07208    163.20272   -2910274.7    23845.809   -2886428.9    354589.62   0.83623489    47.111235    47.111235    159.76331 
  240000    26484    300.54188   -175.46465   -2910049.9    23725.014   -2886324.9    354285.13    0.8369536    47.087324    47.087324    159.78827 
  240100    26484    301.12663    1432.1773   -2909926.7    23771.175   -2886155.5    354032.73   0.83755027    47.066872    47.066872    159.81324 
  240200    26484    302.59656   -745.11092   -2910003.8    23887.212   -2886116.6     354195.5   0.83716538    47.074013    47.074013    159.83821 
  240300    26484    300.08301    254.13078   -2910047.8    23688.791     -2886359    354228.32   0.83708782    47.072518    47.072518    159.86317 
  240400    26484    298.70559    907.50048   -2910068.9    23580.056   -2886488.9    354424.45   0.83662461    47.081871    47.081871    159.88814 
  240500    26484    299.69541   -381.22029   -2910139.3    23658.193   -2886481.1    354821.84   0.83568761     47.10458     47.10458    159.91311 
  240600    26484    300.97371   -2209.7729   -2910145.9    23759.103   -2886386.8    355252.98   0.83467341    47.129511    47.129511    159.93807 
  240700    26484    303.73852    376.87871   -2909991.2     23977.36   -2886013.8     355641.4   0.83376179    47.151589    47.151589    159.96304 
  240800    26484    302.74889    115.21722   -2909878.7    23899.237   -2885979.5    355818.48   0.83334687    47.159646    47.159646    159.98801 
  240900    26484    301.47128   -333.48764   -2910015.5    23798.382   -2886217.2    355801.53   0.83338656    47.154843    47.154843    160.01297 
  241000    26484    302.14094   -88.583167   -2910239.1    23851.245   -2886387.8    355693.48   0.83363973    47.144005    47.144005    160.03794 
  241100    26484    299.03404   -1242.0321   -2910118.9    23605.984   -2886512.9    355598.58    0.8338622    47.134039    47.134039    160.06291 
  241200    26484    300.12164   -2077.5889     -2910295     23691.84   -2886603.1    355451.69   0.83420679    47.120628    47.120628    160.08788 
  241300    26484    298.75042   -82.253979   -2910281.6    23583.595     -2886698    355318.17   0.83452027    47.108104    47.108104    160.11284 
  241400    26484     300.1494   -1487.1364   -2910161.2    23694.032   -2886467.2    355278.86   0.83461261    47.101825    47.101825    160.13781 
  241500    26484    300.64875   -1189.6535   -2910007.5    23733.451     -2886274    355164.93   0.83488032    47.090602    47.090602    160.16278 
  241600    26484    302.17595    570.66556   -2910069.1    23854.009   -2886215.1    355081.23   0.83507713    47.081383    47.081383    160.18774 
  241700    26484    300.76466   -9.9535253   -2910123.4    23742.601   -2886380.8    355138.84   0.83494167    47.081534    47.081534    160.21271 
  241800    26484    300.80804    210.91913   -2910382.6    23746.025   -2886636.5     355309.2   0.83454132    47.089156    47.089156    160.23768 
  241900    26484    299.59882   -341.46071   -2910333.4    23650.569   -2886682.9    355052.04   0.83514578    47.068446    47.068446    160.26264 
  242000    26484    300.33953    658.12424   -2910281.8    23709.041   -2886572.7    355130.78   0.83496062    47.069998    47.069998    160.28761 
  242100    26484    299.97216   -725.98021   -2910142.3     23680.04   -2886462.2    355066.79    0.8351111    47.062092    47.062092    160.31258 
  242200    26484    303.22188   -676.65276   -2910151.3    23936.575   -2886214.7    355068.55   0.83510695    47.058544    47.058544    160.33754 
  242300    26484    303.38712    516.91464   -2910015.7     23949.62     -2886066    355301.78   0.83455875    47.070333    47.070333    160.36251 
  242400    26484    302.36621   -544.07464   -2910157.9    23869.028   -2886288.9    355705.52   0.83361151    47.093403    47.093403    160.38748 
  242500    26484    300.44466    160.25201   -2910155.2    23717.339   -2886437.8    356118.42   0.83264498    47.117061    47.117061    160.41245 
  242600    26484    298.62043    218.59833     -2910127    23573.333   -2886553.7    356491.03   0.83177469    47.138035    47.138035    160.43741 
  242700    26484    300.01533   -119.37896   -2910281.9    23683.448   -2886598.5    356561.83   0.83160953    47.139048    47.139048    160.46238 
  242800    26484    299.15096   -989.59065     -2910055    23615.214   -2886439.8     356790.3     0.831077     47.15048     47.15048    160.48735 
  242900    26484    302.37344   -1510.3631   -2910053.3    23869.599   -2886183.7    357227.32    0.8300603    47.175678    47.175678    160.51231 
  243000    26484    302.35327   -95.040032   -2910028.4    23868.007   -2886160.4    357463.95   0.82951081    47.187631    47.187631    160.53728 
  243100    26484    299.98324    709.74791   -2910142.6    23680.915   -2886461.7    357743.76   0.82886202    47.202425    47.202425    160.56225 
  243200    26484    299.78082    1130.4599   -2910294.1    23664.936   -2886629.2    357785.22   0.82876598    47.201491    47.201491    160.58721 
  243300    26484    300.03461   -676.91629   -2910190.8     23684.97   -2886505.9    357872.19   0.82856455    47.203558    47.203558    160.61218 
  243400    26484    300.19536   -137.53182   -2909995.1     23697.66   -2886297.4    357485.69   0.82946038    47.174395    47.174395    160.63715 
  243500    26484    300.60374    290.06511     -2910047    23729.897   -2886317.1    357157.65    0.8302222    47.149082    47.149082    160.66211 
  243600    26484    299.08692     1281.048     -2910040    23610.159   -2886429.9    357118.61   0.83031297    47.142842    47.142842    160.68708 
  243700    26484     299.0939    98.118204   -2910225.6    23610.709   -2886614.9    357095.41   0.83036692    47.137649    47.137649    160.71205 
  243800    26484    298.06548    726.92353   -2910383.4    23529.525   -2886853.8    356811.33   0.83102803    47.115236    47.115236    160.73702 
  243900    26484    299.01323    181.42146   -2910371.1    23604.341   -2886766.8    356630.07    0.8314504    47.099609    47.099609    160.76198 
  244000    26484    299.35471    1158.6295   -2910162.1    23631.298   -2886530.8    356627.19   0.83145711    47.095762    47.095762    160.78695 
  244100    26484    299.67573   -203.44422   -2910070.7     23656.64     -2886414    356957.78   0.83068707    47.113928    47.113928    160.81192 
  244200    26484    300.82778   -712.66705   -2910158.1    23747.583   -2886410.5    357179.97   0.83017033    47.124931    47.124931    160.83688 
  244300    26484     299.7764     84.89975     -2910210    23664.587   -2886545.5    357359.58    0.8297531    47.133119    47.133119    160.86185 
  244400    26484    297.55928    1029.5845   -2910146.2    23489.566   -2886656.7    357520.78   0.82937897    47.140091    47.140091    160.88682 
  244500    26484    300.67462    648.15265   -2910193.9    23735.493   -2886458.4    357742.08    0.8288659     47.15102     47.15102    160.91178 
  244600    26484     301.5044    1385.1984   -2909978.8    23800.996   -2886177.8    357813.41   0.82870068    47.152062    47.152062    160.93675 
  244700    26484    300.35311   -378.45572   -2909973.6    23710.113   -2886263.5    357725.29   0.82890481    47.142599    47.142599    160.96172 
  244800    26484    299.86546   -1259.9522   -2910138.2    23671.617   -2886466.6    357429.01   0.82959191    47.119418    47.119418    160.98668 
  244900    26484    298.25412    842.81881   -2910100.6    23544.416   -2886556.2    357184.65   0.83015946    47.099656    47.099656    161.01165 
  245000    26484    299.27309   -1172.0335   -2910165.2    23624.855   -2886540.4    357381.63    0.8297019     47.10899     47.10899    161.03662 
  245100    26484    299.36122   -666.23298   -2910125.8    23631.812   -2886493.9    357438.17   0.82957066    47.109064    47.109064    161.06159 
  245200    26484    299.39589   -418.71375   -2910076.8    23634.549   -2886442.2    357542.99   0.82932744     47.11232     47.11232    161