LAMMPS (2 Aug 2019)
# lammps code to equilibrate pmma system
# method adopted from the paper "Toughening of graphene based polymer nanocomposite via tuning chemical functionalization"
# after equilibration create crack and perform tension test
# pmma pnc system has been functionalized - 30 % of -OH functionalization
# cnt is functionalized with -OH group (hydrogen bonding)

units		real
atom_style 	charge
boundary 	p p p
read_data       pmma_pnc_funct.data
  orthogonal box = (0.820614 -0.188365 2.36829) to (50.8206 49.8116 102.368)
  2 by 2 by 7 MPI processor grid
  reading atoms ...
  26858 atoms
  read_data CPU = 0.0603802 secs

pair_style	reax/c control_file lgvdw yes
pair_coeff	* * ffield.reax.lg C C H O H C C C O O C C
Reading potential file ffield.reax.lg with DATE: 2012-01-06

neighbor	4 bin
neigh_modify	every 10 delay 0 check no

thermo 100
thermo_style custom step atoms temp press pe ke etotal vol density lx ly lz      #output variables

fix std all qeq/reax 1 0.0 10.0 1e-6 reax/c
min_style	 cg							#conjugate gradient minimization
minimize	 1.0e-6 1.0e-8 10000 100000
WARNING: Using 'neigh_modify every 1 delay 0 check yes' setting during minimization (../min.cpp:168)
Neighbor list info ...
  update every 1 steps, delay 0 steps, check yes
  max neighbors/atom: 2000, page size: 100000
  master list distance cutoff = 14
  ghost atom cutoff = 14
  binsize = 7, bins = 8 8 15
  2 neighbor lists, perpetual/occasional/extra = 2 0 0
  (1) pair reax/c, perpetual
      attributes: half, newton off, ghost
      pair build: half/bin/newtoff/ghost
      stencil: half/ghost/bin/3d/newtoff
      bin: standard
  (2) fix qeq/reax, perpetual, copy from (1)
      attributes: half, newton off, ghost
      pair build: copy
      stencil: none
      bin: none
Per MPI rank memory allocation (min/avg/max) = 280.6 | 283.6 | 287.9 Mbytes
Step Atoms Temp Press PotEng KinEng TotEng Volume Density Lx Ly Lz 
       0    26858            0    297331.23     -2811962            0     -2811962       250000    1.2070145           50           50          100 
      53    26858            0   -2092.7132     -2955269            0     -2955269       250000    1.2070145           50           50          100 
Loop time of 47.1272 on 28 procs for 53 steps with 26858 atoms

99.6% CPU use with 28 MPI tasks x no OpenMP threads

Minimization stats:
  Stopping criterion = energy tolerance
  Energy initial, next-to-last, final = 
        -2811962.00384     -2955268.60785     -2955269.02623
  Force two-norm initial, final = 39477.2 4044.34
  Force max component initial, final = 1154.26 305.242
  Final line search alpha, max atom move = 0.000161159 0.0491925
  Iterations, force evaluations = 53 135

MPI task timing breakdown:
Section |  min time  |  avg time  |  max time  |%varavg| %total
---------------------------------------------------------------
Pair    | 28.044     | 29.733     | 31.402     |  15.8 | 63.09
Neigh   | 0          | 0          | 0          |   0.0 |  0.00
Comm    | 0.11851    | 1.7769     | 3.4779     |  64.3 |  3.77
Output  | 0          | 0          | 0          |   0.0 |  0.00
Modify  | 15.575     | 15.586     | 15.599     |   0.2 | 33.07
Other   |            | 0.03186    |            |       |  0.07

Nlocal:    959.214 ave 1014 max 910 min
Histogram: 1 2 2 6 4 4 5 3 0 1
Nghost:    11774.4 ave 11902 max 11598 min
Histogram: 1 1 2 2 3 5 4 6 2 2
Neighs:    959225 ave 1.01797e+06 max 899017 min
Histogram: 1 1 3 4 5 4 5 3 1 1

Total # of neighbors = 26858300
Ave neighs/atom = 1000.01
Neighbor list builds = 0
Dangerous builds not checked


#set of equilibrations to reduce the energy of the system

reset_timestep 0
timestep 0.25
fix npt_equi all npt temp 300.0 300.0 25.0 iso 1.0 1.0 250.0
#fix bd all reax/c/bonds 500 bonds.reaxc_eqbn
dump npt_dump all custom 500 dump.npt id type x y z
run 200000
Per MPI rank memory allocation (min/avg/max) = 280.2 | 283.3 | 287.6 Mbytes
Step Atoms Temp Press PotEng KinEng TotEng Volume Density Lx Ly Lz 
       0    26858            0   -2092.7368     -2955269            0     -2955269       250000    1.2070145           50           50          100 
     100    26858    44.438948   -350.22598   -2958523.4    3557.5874   -2954965.8    249124.35    1.2112571    49.941555    49.941555     99.88311 
     200    26858    69.299094   -173.08628     -2959520    5547.7816   -2953972.2    246776.67    1.2227803    49.784181    49.784181    99.568362 
     300    26858    84.978262    3739.2186   -2959300.4     6802.987   -2952497.4    245003.76    1.2316286    49.664673    49.664673    99.329347 
     400    26858    97.836818   -2475.8046   -2958526.6    7832.3867   -2950694.2    244898.17    1.2321596    49.657538    49.657538    99.315076 
     500    26858    118.00801   -222.66332   -2958006.6    9447.2037   -2948559.4       244931    1.2319945    49.659757    49.659757    99.319513 
     600    26858    137.38581   -771.54041   -2957037.4    10998.506   -2946038.9    244870.04    1.2323012    49.655636    49.655636    99.311273 
     700    26858    153.13887    44.875396   -2955457.1    12259.627   -2943197.5    245433.56    1.2294718    49.693698    49.693698    99.387397 
     800    26858    176.23134    305.70529   -2954163.4    14108.309   -2940055.1    246845.36      1.22244      49.7888      49.7888      99.5776 
     900    26858    198.82839    1710.7295   -2952574.7    15917.329   -2936657.3    248917.39    1.2122642    49.927722    49.927722    99.855444 
    1000    26858     223.5499   -142.26145   -2950965.5    17896.425   -2933069.1    251136.48    1.2015524    50.075651    50.075651     100.1513 
    1100    26858    244.98271    2409.5038   -2949030.7    19612.242   -2929418.5    253119.01    1.1921413    50.207075    50.207075    100.41415 
    1200    26858     265.8384     1663.671   -2947156.9    21281.857   -2925875.1    254878.23     1.183913    50.323122    50.323122    100.64624 
    1300    26858     286.0329    1020.1714   -2945593.7     22898.54   -2922695.1    256799.58     1.175055    50.449257    50.449257    100.89851 
    1400    26858     297.1568   -35.299171   -2943896.2     23789.07   -2920107.1     258598.7    1.1668799    50.566797    50.566797    101.13359 
    1500    26858    305.50698    1606.1444   -2942857.3     24457.55   -2918399.8    260262.41    1.1594207    50.675007    50.675007    101.35001 
    1600    26858    305.91341    1671.7328     -2942347    24490.086   -2917856.9    261795.28    1.1526321    50.774299    50.774299     101.5486 
    1700    26858    299.40513     1882.884   -2942140.9    23969.062   -2918171.9    263459.07     1.145353    50.881634    50.881634    101.76327 
    1800    26858      295.443   -215.38589   -2942052.9    23651.871   -2918401.1    265288.11    1.1374563     50.99911     50.99911    101.99822 
    1900    26858    300.18592    405.81569     -2942104    24031.569   -2918072.4    266417.64    1.1326338    51.071388    51.071388    102.14278 
    2000    26858    304.64778     986.7004   -2942238.3    24388.765   -2917849.5    267460.04    1.1282195     51.13791     51.13791    102.27582 
    2100    26858    298.37496    2698.4218   -2942065.8    23886.591   -2918179.2    268642.84    1.1232521    51.213182    51.213182    102.42636 
    2200    26858    295.83146    291.94511   -2942074.5     23682.97   -2918391.5    270173.01    1.1168904    51.310233    51.310233    102.62047 
    2300    26858    299.25979    292.51754   -2942088.3    23957.426   -2918130.9    272062.43    1.1091338    51.429566    51.429566    102.85913 
    2400    26858    304.96271    970.53963   -2942246.6    24413.978   -2917832.6    273641.31    1.1027342    51.528863    51.528863    103.05773 
    2500    26858    299.88916   -205.86494   -2942069.1    24007.811   -2918061.3    274706.02    1.0984602    51.595607    51.595607    103.19121 
    2600    26858    298.13053     608.9881   -2942111.8    23867.023   -2918244.8    275862.85    1.0938538    51.667932    51.667932    103.33586 
    2700    26858    299.88534   -801.44926   -2942111.6    24007.505   -2918104.1    276966.59    1.0894947    51.736748    51.736748     103.4735 
    2800    26858    300.31507    2896.8111   -2942039.4    24041.907   -2917997.5    278393.55    1.0839103    51.825447    51.825447    103.65089 
    2900    26858    299.91583    574.40576     -2941919    24009.946   -2917909.1    280183.44     1.076986    51.936278    51.936278    103.87256 
    3000    26858    298.89956    1296.3079   -2941762.4    23928.588   -2917833.8    282023.33    1.0699598    52.049714    52.049714    104.09943 
    3100    26858    296.11677    413.00576   -2941304.8     23705.81     -2917599    283857.91    1.0630447    52.162332    52.162332    104.32466 
    3200    26858    301.52972    1941.7842   -2941159.9    24139.147   -2917020.7     285832.2     1.055702    52.282986    52.282986    104.56597 
    3300    26858    300.13294    1325.5573   -2940641.8    24027.327   -2916614.5    287573.37    1.0493101    52.388934    52.388934    104.77787 
    3400    26858    302.67457   -1675.8919   -2940609.9    24230.799   -2916379.1    289235.75    1.0432792    52.489688    52.489688    104.97938 
    3500    26858    299.47022    798.30089   -2940576.4    23974.273   -2916602.1    290289.21    1.0394931    52.553337    52.553337    105.10667 
    3600    26858    297.82466    525.95547   -2940669.6    23842.536   -2916827.1    291628.23    1.0347202    52.634018    52.634018    105.26804 
    3700    26858    298.89374    1357.1115   -2940562.1    23928.123   -2916633.9    292741.54    1.0307852    52.700911    52.700911    105.40182 
    3800    26858     302.9835    847.51596   -2940606.4    24255.531   -2916350.8    294119.96    1.0259543    52.783498    52.783498      105.567 
    3900    26858    299.81867     1699.028   -2940320.7    24002.169   -2916318.5    295110.97     1.022509    52.842715    52.842715    105.68543 
    4000    26858    299.75002     -283.758   -2940286.2    23996.672   -2916289.5    295972.04    1.0195343    52.894059    52.894059    105.78812 
    4100    26858    299.56688   -437.07662   -2940299.1    23982.011     -2916317    296557.12    1.0175228     52.92889     52.92889    105.85778 
    4200    26858    299.23042   -600.49635     -2940283    23955.075   -2916327.9    297129.06    1.0155642    52.962895    52.962895    105.92579 
    4300    26858     301.7798   -1096.4201   -2940521.9    24159.168   -2916362.7    297590.01    1.0139911    52.990268    52.990268    105.98054 
    4400    26858    298.50089   -782.59328   -2940505.3    23896.672   -2916608.6    297973.38    1.0126866    53.013013    53.013013    106.02603 
    4500    26858    298.65105    -442.3083   -2940708.7    23908.694     -2916800       298237    1.0117914    53.028642    53.028642    106.05728 
    4600    26858    299.18677    2780.8068   -2940709.5    23951.581   -2916757.9    297993.29    1.0126189    53.014194    53.014194    106.02839 
    4700    26858    300.46007   -238.62244   -2940558.5    24053.516     -2916505    297688.78    1.0136547     52.99613     52.99613    105.99226 
    4800    26858    301.15203    9.6781303   -2940453.2    24108.911   -2916344.3    297323.67    1.0148995    52.974455    52.974455    105.94891 
    4900    26858    299.94257   -434.47972   -2940398.9    24012.087   -2916386.8    296809.73    1.0166568    52.943914    52.943914    105.88783 
    5000    26858    298.82494   -390.38744   -2940497.1    23922.615   -2916574.5    296012.33    1.0193955    52.896459    52.896459    105.79292 
    5100    26858    298.29301    656.91262   -2940520.9     23880.03   -2916640.9    295141.74    1.0224025    52.844551    52.844551     105.6891 
    5200    26858     300.5051   -169.17356   -2940605.9    24057.121   -2916548.7    294049.15    1.0262013    52.779262    52.779262    105.55852 
    5300    26858    301.17014   -248.58961   -2940589.4    24110.361   -2916479.1    293200.54    1.0291715     52.72844     52.72844    105.45688 
    5400    26858    301.87245   -857.88133   -2940598.7    24166.585   -2916432.1    292222.38    1.0326165    52.669738    52.669738    105.33948 
    5500    26858    299.48537   -954.28443   -2940587.1    23975.486   -2916611.6    291329.27    1.0357821    52.616026    52.616026    105.23205 
    5600    26858    300.25819    535.60652   -2940843.9    24037.354   -2916806.6    290161.62    1.0399502    52.545636    52.545636    105.09127 
    5700    26858    299.45939    779.82041   -2940873.8    23973.406   -2916900.4    289012.23     1.044086    52.476163    52.476163    104.95233 
    5800    26858    299.84193    596.91972   -2940856.7     24004.03   -2916852.7    288480.81    1.0460094     52.44398     52.44398    104.88796 
    5900    26858    298.00802    824.98649   -2940572.6    23857.215   -2916715.4    288174.77    1.0471202    52.425428    52.425428    104.85086 
    6000    26858    302.85148   -105.28577   -2940767.9    24244.961   -2916522.9    287795.75    1.0484993    52.402434    52.402434    104.80487 
    6100    26858    299.73419   -669.77191     -2940645    23995.405   -2916649.6    287398.87    1.0499472    52.378335    52.378335    104.75667 
    6200    26858    300.27618   -2144.5109   -2940875.4    24038.794   -2916836.7       287100    1.0510402    52.360172    52.360172    104.72034 
    6300    26858    298.53027     1746.577   -2940931.6    23899.024   -2917032.6    286706.05    1.0524844    52.336212    52.336212    104.67242 
    6400    26858     299.7737   -2084.3494   -2941229.8    23998.568   -2917231.2    287121.58    1.0509612    52.361484    52.361484    104.72297 
    6500    26858    300.95448    667.04097   -2941464.5    24093.096   -2917371.4    287412.63    1.0498969     52.37917     52.37917    104.75834 
    6600    26858    297.33568   -180.95694   -2941208.7    23803.391   -2917405.3    287689.11    1.0488879    52.395961    52.395961    104.79192 
    6700    26858    300.10372   -924.52964   -2941248.9    24024.988     -2917224    288444.06    1.0461427    52.441753    52.441753    104.88351 
    6800    26858    300.65808   -1782.4151     -2941087    24069.367   -2917017.6    288753.34    1.0450221     52.46049     52.46049    104.92098 
    6900    26858    300.74286    619.16678   -2940934.4    24076.155   -2916858.3    288990.33    1.0441652    52.474838    52.474838    104.94968 
    7000    26858    302.06993    1382.7473   -2940975.4    24182.394     -2916793    289068.01    1.0438846    52.479539    52.479539    104.95908 
    7100    26858    303.38812    1528.2884   -2941074.3    24287.923   -2916786.4    289055.47    1.0439299     52.47878     52.47878    104.95756 
    7200    26858    300.37599   0.58982688   -2940991.7    24046.785   -2916944.9    289494.58    1.0423464    52.505341    52.505341    105.01068 
    7300    26858    298.73493    1225.0042   -2941064.9    23915.409   -2917149.5     289909.6    1.0408542    52.530419    52.530419    105.06084 
    7400    26858    297.43156   -341.18769   -2940988.9    23811.066   -2917177.9    290372.16    1.0391962    52.558343    52.558343    105.11669 
    7500    26858    299.49028   -781.27142   -2940851.9    23975.879     -2916876    290740.73    1.0378788     52.58057     52.58057    105.16114 
    7600    26858    302.95366    609.30705   -2940748.6    24253.141   -2916495.4     290788.1    1.0377097    52.583426    52.583426    105.16685 
    7700    26858    301.19958   -1972.1695   -2940593.9    24112.718   -2916481.2    290860.33     1.037452    52.587779    52.587779    105.17556 
    7800    26858    300.46097    265.37142   -2940819.1    24053.588   -2916765.5    290826.42     1.037573    52.585735    52.585735    105.17147 
    7900    26858    299.78933    214.33303   -2941038.9    23999.819   -2917039.1    291277.17    1.0359674    52.612889    52.612889    105.22578 
    8000    26858    298.45629    1380.4854   -2940892.1    23893.102     -2916999    291616.14    1.0347632     52.63329     52.63329    105.26658 
    8100    26858    301.38826   -1395.0284   -2940752.7    24127.823   -2916624.8    291838.24    1.0339756    52.646649    52.646649     105.2933 
    8200    26858    301.36965   -455.28711   -2940509.3    24126.333   -2916382.9    291817.65    1.0340486    52.645411    52.645411    105.29082 
    8300    26858    302.89169    1235.2537   -2940826.9    24248.181   -2916578.7     291480.9    1.0352433    52.625153    52.625153    105.25031 
    8400    26858     299.9899    15.331022   -2941091.1    24015.876   -2917075.2    291123.71    1.0365134    52.603648    52.603648     105.2073 
    8500    26858    297.40882    157.83383   -2941185.7    23809.246   -2917376.4    290746.45    1.0378584    52.580915    52.580915    105.16183 
    8600    26858    299.78946   -2114.0446   -2941263.7    23999.829   -2917263.8    290399.51    1.0390983    52.559992    52.559992    105.11998 
    8700    26858    299.53889   -13.828434   -2940924.9     23979.77   -2916945.1    289794.49    1.0412677    52.523466    52.523466    105.04693 
    8800    26858     302.8668    1084.6803   -2940959.3    24246.188   -2916713.1    288744.01    1.0450559    52.459924    52.459924    104.91985 
    8900    26858    302.79562   -2155.1283     -2941176     24240.49   -2916935.5    288066.96    1.0475121     52.41889     52.41889    104.83778 
    9000    26858    299.90373   -256.84456   -2941443.2    24008.977   -2917434.2    287469.71    1.0496884    52.382638    52.382638    104.76528 
    9100    26858    297.65854    655.61172   -2941549.7    23829.237   -2917720.4    287108.36    1.0510096     52.36068     52.36068    104.72136 
    9200    26858    298.52031    412.10238   -2941592.5    23898.227   -2917694.3    286676.71    1.0525921    52.334427    52.334427    104.66885 
    9300    26858    299.07268     348.2073   -2941326.4    23942.448     -2917384    286238.42    1.0542038    52.307743    52.307743    104.61549 
    9400    26858    300.61708   -1551.1605   -2941043.5    24066.086   -2916977.4    285976.08    1.0551709    52.291757    52.291757    104.58351 
    9500    26858    302.75981   -465.63456     -2940995    24237.623   -2916757.4    285600.25    1.0565594     52.26884     52.26884    104.53768 
    9600    26858    301.33308    263.85042   -2941103.9    24123.405   -2916980.5    285243.06    1.0578825    52.247041    52.247041    104.49408 
    9700    26858     300.7225   -312.75222     -2941476    24074.525   -2917401.5    284772.46    1.0596307    52.218292    52.218292    104.43658 
    9800    26858    297.18172    1214.4317   -2941654.7    23791.066   -2917863.6    284670.84    1.0600089     52.21208     52.21208    104.42416 
    9900    26858    296.00521   -457.01624     -2941643    23696.879   -2917946.2    284782.65    1.0595928    52.218915    52.218915    104.43783 
   10000    26858    297.81686   -115.36833     -2941222    23841.912   -2917380.1    284669.29    1.0600147    52.211985    52.211985    104.42397 
   10100    26858    305.52252   -195.11348   -2941209.7    24458.793   -2916750.9    284641.05    1.0601199    52.210259    52.210259    104.42052 
   10200    26858    302.83114   -1164.1973   -2941092.1    24243.333   -2916848.8     284270.4    1.0615021    52.187587    52.187587    104.37517 
   10300    26858    300.88726    511.51131   -2941486.9    24087.715   -2917399.2    283750.38    1.0634475    52.155745    52.155745    104.31149 
   10400    26858    297.15742   -1933.1845   -2941674.6     23789.12   -2917885.5    283517.05    1.0643227    52.141445    52.141445    104.28289 
   10500    26858    300.80001   -2105.7326   -2942036.9     24080.73   -2917956.2    283148.05    1.0657097    52.118814    52.118814    104.23763 
   10600    26858    299.12154   -1700.7408   -2941662.7    23946.359   -2917716.3    282996.77    1.0662794     52.10953     52.10953    104.21906 
   10700    26858    302.25073    912.06586     -2941504    24196.868   -2917307.2    282617.21    1.0677115    52.086223    52.086223    104.17245 
   10800    26858    300.97516   -99.028657   -2941374.7    24094.752   -2917279.9     282656.1    1.0675646    52.088613    52.088613    104.17723 
   10900    26858    299.60896   -1023.8514     -2941491     23985.38   -2917505.6     282806.9    1.0669953    52.097874    52.097874    104.19575 
   11000    26858    298.35269   -809.02137   -2941470.5    23884.808   -2917585.6    282921.53     1.066563    52.104912    52.104912    104.20982 
   11100    26858     300.0414   -529.94517   -2941452.4    24019.999   -2917432.4    282710.76    1.0673582     52.09197     52.09197    104.18394 
   11200    26858    302.26053    -735.2278     -2941389    24197.653   -2917191.4    282792.86    1.0670483    52.097012    52.097012    104.19402 
   11300    26858    302.86046    -592.3013   -2941294.5     24245.68   -2917048.8    282595.92    1.0677919    52.084916    52.084916    104.16983 
   11400    26858    302.31571    787.98429     -2941498     24202.07   -2917295.9    282262.97    1.0690514    52.064452    52.064452     104.1289 
   11500    26858    298.42181    838.97419   -2941664.6    23890.341   -2917774.3    281997.99     1.070056    52.048155    52.048155    104.09631 
   11600    26858    296.89765    616.86316   -2941704.9    23768.324   -2917936.5    281751.18    1.0709933    52.032966    52.032966    104.06593 
   11700    26858    298.80706   -294.77181     -2941503    23921.183   -2917581.8    281852.98    1.0706065    52.039232    52.039232    104.07846 
   11800    26858    302.51866    899.26742   -2941251.5    24218.318   -2917033.2    282081.84    1.0697379    52.053313    52.053313    104.10663 
   11900    26858    304.49575    493.97937   -2941289.2    24376.595   -2916912.6     282371.7    1.0686398    52.071136    52.071136    104.14227 
   12000    26858    299.58894   -1101.8665   -2941336.7    23983.777   -2917352.9    282345.13    1.0687404    52.069503    52.069503    104.13901 
   12100    26858     299.3172   -1048.4578     -2941844    23962.023   -2917881.9    282217.09    1.0692253    52.061631    52.061631    104.12326 
   12200    26858    295.85546   -1067.9437   -2941893.8    23684.891   -2918208.9    282340.16    1.0687592    52.069198    52.069198     104.1384 
   12300    26858    296.22631   -370.43725   -2941774.7    23714.579   -2918060.1     282071.3    1.0697779    52.052665    52.052665    104.10533 
   12400    26858     301.1925   -592.90598   -2941717.5    24112.151   -2917605.3    281476.65    1.0720379    52.016061    52.016061    104.03212 
   12500    26858    301.89207    -818.7813   -2941462.9    24168.155   -2917294.8     281390.2    1.0723673    52.010735    52.010735    104.02147 
   12600    26858    303.51149    -814.1124   -2941653.8    24297.799     -2917356    281198.38    1.0730988    51.998914    51.998914    103.99783 
   12700    26858     298.1703   -1176.6074   -2941707.8    23870.207   -2917837.6    281281.97    1.0727799    52.004066    52.004066    104.00813 
   12800    26858    296.36722    1121.5016   -2941862.3     23725.86   -2918136.4    281529.66    1.0718361    52.019326    52.019326    104.03865 
   12900    26858    299.55511   -691.36975   -2941917.4    23981.068   -2917936.3    281330.25    1.0725958    52.007041    52.007041    104.01408 
   13000    26858    301.07642    -2115.206   -2941829.6    24102.858   -2917726.7    281081.52    1.0735449     51.99171     51.99171    103.98342 
   13100    26858     299.3395    57.444769   -2941608.3    23963.808   -2917644.5    280755.67    1.0747909    51.971611    51.971611    103.94322 
   13200    26858    303.82286    1420.5134   -2942009.1    24322.726   -2917686.4    280653.28     1.075183    51.965292    51.965292    103.93058 
   13300    26858     300.4666   -311.73509   -2942047.6    24054.038   -2917993.5    280520.84    1.0756906    51.957117    51.957117    103.91423 
   13400    26858    296.70092     815.1638   -2942051.8    23752.575   -2918299.2    280017.11    1.0776257    51.925998    51.925998      103.852 
   13500    26858    301.76859    112.84763   -2942361.8     24158.27   -2918203.5     279689.2    1.0788891    51.905722    51.905722    103.81144 
   13600    26858    299.91858   -850.58765   -2942031.3    24010.166   -2918021.2    278953.78    1.0817334    51.860188    51.860188    103.72038 
   13700    26858      300.513   -741.71067   -2942008.5    24057.753   -2917950.8    278682.64    1.0827859     51.84338     51.84338    103.68676 
   13800    26858     299.6065    1088.3974   -2942089.8    23985.183   -2918104.6    278544.05    1.0833247    51.834784    51.834784    103.66957 
   13900    26858    298.41351   -703.47735   -2942113.7    23889.677     -2918224    278634.51    1.0829729    51.840395    51.840395    103.68079 
   14000    26858    297.94481    1192.8089   -2941959.7    23852.155   -2918107.6    278563.47    1.0832491    51.835989    51.835989    103.67198 
   14100    26858     302.0166    350.93912   -2942107.4    24178.125   -2917929.3    278536.48    1.0833541    51.834315    51.834315    103.66863 
   14200    26858    298.85718   -284.59662   -2941952.3    23925.195   -2918027.1    278442.53    1.0837196    51.828486    51.828486    103.65697 
   14300    26858    298.35127   -302.56077   -2942040.6    23884.694   -2918155.9    278387.71     1.083933    51.825085    51.825085    103.65017 
   14400    26858    299.58014    532.03363   -2942182.8    23983.072   -2918199.7    278184.93    1.0847232    51.812498    51.812498      103.625 
   14500    26858    298.05911   -2650.3135   -2941990.4    23861.306     -2918129    278074.02    1.0851558    51.805612    51.805612    103.61122 
   14600    26858     302.7683    1398.4652   -2942111.3    24238.303     -2917873    277706.48     1.086592    51.782777    51.782777    103.56555 
   14700    26858    302.10809   -1605.9863   -2942073.3    24185.449   -2917887.9    277232.56    1.0884495    51.753304    51.753304    103.50661 
   14800    26858    297.14749   -840.31318   -2942022.7    23788.325   -2918234.4     277227.7    1.0884686    51.753001    51.753001      103.506 
   14900    26858    297.78631   -1605.7181   -2942320.7    23839.466   -2918481.2    277122.22    1.0888829    51.746437    51.746437    103.49287 
   15000    26858    299.56834   -1058.1381   -2942401.3    23982.128   -2918419.2    276813.87    1.0900958    51.727238    51.727238    103.45448 
   15100    26858    301.87252    362.27942   -2942271.4     24166.59   -2918104.8    276249.29    1.0923237    51.692046    51.692046    103.38409 
   15200    26858     302.2284    1311.0773   -2942098.9    24195.081   -2917903.8    275596.73    1.0949101    51.651312    51.651312    103.30262 
   15300    26858    301.65303    1319.7901   -2942125.4    24149.019   -2917976.3    275594.38    1.0949194    51.651165    51.651165    103.30233 
   15400    26858    300.53316   -2988.1048   -2942179.3    24059.367   -2918119.9    275934.16    1.0935712    51.672383    51.672383    103.34477 
   15500    26858    299.93029   -82.771685   -2942133.4    24011.104   -2918122.3    276204.42    1.0925011    51.689247    51.689247    103.37849 
   15600    26858    302.47134     562.9752   -2942314.5     24214.53     -2918100    275900.72    1.0937037    51.670296    51.670296    103.34059 
   15700    26858    300.85137    38.109955   -2942317.1    24084.842   -2918232.3    276102.37    1.0929049    51.682881    51.682881    103.36576 
   15800    26858    299.36319    1462.3704   -2942280.9    23965.705   -2918315.2    276307.12    1.0920951    51.695653    51.695653    103.39131 
   15900    26858    299.95383   -2056.3252   -2942282.4    24012.989   -2918269.4    276508.69    1.0912989    51.708221    51.708221    103.41644 
   16000    26858    299.30935    1508.1138     -2942153    23961.394   -2918191.6    276263.72    1.0922666    51.692947    51.692947    103.38589 
   16100    26858    300.53342   -119.80489   -2942042.7    24059.388   -2917983.3    276150.45    1.0927146     51.68588     51.68588    103.37176 
   16200    26858    301.53081    676.38876   -2942086.7    24139.235   -2917947.5    276058.64     1.093078    51.680152    51.680152     103.3603 
   16300    26858    299.40365   -1915.8702   -2942248.7    23968.943   -2918279.8     276030.2    1.0931906    51.678378    51.678378    103.35676 
   16400    26858    298.29388   -2157.6658   -2942318.4    23880.101   -2918438.3    276014.06    1.0932546     51.67737     51.67737    103.35474 
   16500    26858    300.51961    10.427241   -2942231.6    24058.282   -2918173.3    275693.08    1.0945274     51.65733     51.65733    103.31466 
   16600    26858    302.02709    973.40425   -2942062.6    24178.965   -2917883.6    274873.92    1.0977893    51.606117    51.606117    103.21223 
   16700    26858    302.37182   -20.362094     -2942101    24206.562   -2917894.4    274167.41    1.1006182    51.561864    51.561864    103.12373 
   16800    26858    302.86774    1530.2244   -2942590.6    24246.263   -2918344.3    273665.63    1.1026362    51.530389    51.530389    103.06078 
   16900    26858    295.77455    613.70733   -2942619.3    23678.414   -2918940.9    273290.01    1.1041517    51.506802    51.506802     103.0136 
   17000    26858    297.57827   -566.18401   -2942745.3    23822.811   -2918922.5    273187.49    1.1045661    51.500361    51.500361    103.00072 
   17100    26858    300.61929   -25.276742   -2942526.5    24066.262   -2918460.2       273111    1.1048755    51.495553    51.495553    102.99111 
   17200    26858    303.04743   -292.40164   -2942347.4    24260.648   -2918086.8     273222.9    1.1044229    51.502586    51.502586    103.00517 
   17300    26858    301.41735   -580.96653   -2942286.1    24130.151   -2918155.9    273337.88    1.1039583    51.509809    51.509809    103.01962 
   17400    26858    298.69386   -363.37545   -2942386.9    23912.121   -2918474.8    273134.71    1.1047795    51.497044    51.497044    102.99409 
   17500    26858    297.66605    220.52062   -2942446.8    23829.838   -2918616.9    272927.87    1.1056168    51.484041    51.484041    102.96808 
   17600    26858    299.79026    91.496507   -2942395.1    23999.894   -2918395.2    273069.73    1.1050424     51.49296     51.49296    102.98592 
   17700    26858    301.62489    1497.8837   -2942261.2    24146.766   -2918114.4    272591.55    1.1069809    51.462885    51.462885    102.92577 
   17800    26858    301.46074   -217.88309   -2942304.1    24133.625   -2918170.5     272346.2    1.1079781    51.447441    51.447441    102.89488 
   17900    26858    298.40079   -987.11518   -2942338.2    23888.659   -2918449.6    272553.64    1.1071348      51.4605      51.4605      102.921 
   18000    26858    300.48281    1589.4207   -2942719.7    24055.337   -2918664.3    272783.05    1.1062038    51.474934    51.474934    102.94987 
   18100    26858     299.0916    -1029.206   -2942757.6    23943.962   -2918813.7    272758.43    1.1063036    51.473385    51.473385    102.94677 
   18200    26858    297.46365   -790.08199   -2942543.1    23813.635   -2918729.5    272528.39    1.1072375     51.45891     51.45891    102.91782 
   18300    26858    301.11471    1061.8938   -2942570.6    24105.923   -2918464.7    272039.04    1.1092292    51.428092    51.428092    102.85618 
   18400    26858    301.99309    127.18369   -2942493.9    24176.243   -2918317.6    271722.65    1.1105207    51.408147    51.408147    102.81629 
   18500    26858    297.92458   -913.55397   -2942315.6    23850.536     -2918465    271688.62    1.1106598    51.406001    51.406001      102.812 
   18600    26858    297.41061     1333.254   -2942385.7     23809.39   -2918576.3    271791.03    1.1102414    51.412459    51.412459    102.82492 
   18700    26858     299.1167    -110.2071   -2942461.6    23945.972   -2918515.6    271605.81    1.1109985    51.400777    51.400777    102.80155 
   18800    26858    301.28013     126.0915     -2942498    24119.166   -2918378.8    271451.79    1.1116288     51.39106     51.39106    102.78212 
   18900    26858    299.47369   -906.78407   -2942472.6     23974.55     -2918498    271562.65    1.1111751    51.398054    51.398054    102.79611 
   19000    26858     299.5202    37.704513   -2942731.1    23978.274   -2918752.8    271925.55    1.1096921    51.420939    51.420939    102.84188 
   19100    26858    298.57053    1139.1897   -2942793.9    23902.248   -2918891.7    271873.61    1.1099041    51.417665    51.417665    102.83533 
   19200    26858    299.03679   -2083.7966   -2942644.9    23939.574   -2918705.4    271782.27    1.1102771    51.411906    51.411906    102.82381 
   19300    26858    303.53536    357.98914   -2942754.5     24299.71   -2918454.8    271683.15    1.1106822    51.405655    51.405655    102.81131 
   19400    26858     299.8044    421.04655   -2942540.3    24001.026   -2918539.3    271618.23    1.1109476    51.401561    51.401561    102.80312 
   19500    26858     300.3889    114.63088   -2942540.8    24047.819     -2918493    271729.37    1.1104933    51.408571    51.408571    102.81714 
   19600    26858    301.31028    533.13713   -2942569.1     24121.58   -2918447.5    271508.39    1.1113971    51.394631    51.394631    102.78926 
   19700    26858    301.54769    1811.2886     -2942699    24140.586   -2918558.4    270996.08    1.1134981    51.362285    51.362285    102.72457 
   19800    26858    299.80854    468.92498   -2942713.3    24001.357     -2918712    270850.94    1.1140949    51.353114    51.353114    102.70623 
   19900    26858    297.27108   -870.87768   -2942492.9     23798.22   -2918694.7    270635.52    1.1149816    51.339496    51.339496    102.67899 
   20000    26858    301.24713   -1311.0355   -2942489.3    24116.525   -2918372.8    270616.06    1.1150618    51.338265    51.338265    102.67653 
   20100    26858    302.43031   -728.65059   -2942413.6    24211.245   -2918202.3    270545.25    1.1153537    51.333787    51.333787    102.66757 
   20200    26858    298.71464    1709.7615     -2942393    23913.784   -2918479.2     270208.3    1.1167445    51.312467    51.312467    102.62493 
   20300    26858    298.42279   -741.78562   -2942654.1     23890.42   -2918763.7    270161.53    1.1169378    51.309506    51.309506    102.61901 
   20400    26858    300.60906   -103.30701   -2942785.1    24065.443   -2918719.7    270329.25    1.1162449    51.320122    51.320122    102.64024 
   20500    26858    301.62801   -830.61885   -2942722.1    24147.016   -2918575.1    270505.63     1.115517    51.331281    51.331281    102.66256 
   20600    26858    300.54398   -1097.2275   -2942627.7    24060.233   -2918567.4    270972.95    1.1135932    51.360824    51.360824    102.72165 
   20700    26858     299.7031     409.0607   -2942750.7    23992.916   -2918757.8    271292.03    1.1122835    51.380975    51.380975    102.76195 
   20800    26858    299.93464   -403.17006     -2942926    24011.452   -2918914.6    271196.24    1.1126763    51.374928    51.374928    102.74986 
   20900    26858    298.96763   -331.83112   -2942771.3    23934.037   -2918837.3    270842.77    1.1141285    51.352597    51.352597    102.70519 
   21000    26858    300.60859    206.37894   -2942635.3    24065.406   -2918569.9    270490.11     1.115581    51.330299    51.330299     102.6606 
   21100    26858    303.18459   -197.65717   -2942636.5    24271.629   -2918364.9    270446.79    1.1157597    51.327559    51.327559    102.65512 
   21200    26858     299.3896    -984.5263   -2942464.6    23967.819   -2918496.8    270340.67    1.1161977    51.320845    51.320845    102.64169 
   21300    26858    301.48424    452.50356   -2942803.1    24135.506   -2918667.6    270015.94    1.1175401    51.300288    51.300288    102.60058 
   21400    26858    299.68069    1243.8264   -2942897.4    23991.122   -2918906.2    269608.16    1.1192304     51.27445     51.27445     102.5489 
   21500    26858    299.47169    707.71547   -2942966.4    23974.391     -2918992    269426.46    1.1199852    51.262929    51.262929    102.52586 
   21600    26858    296.74425   -439.89579   -2942659.4    23756.044   -2918903.3    269320.74    1.1204248    51.256223    51.256223    102.51245 
   21700    26858    300.36991    1271.4305     -2942659    24046.298   -2918612.7    269650.22    1.1190558    51.277117    51.277117    102.55423 
   21800    26858    303.52448   -2373.9651     -2942719    24298.839   -2918420.2    270016.55    1.1175376    51.300326    51.300326    102.60065 
   21900    26858     299.7896    1452.5734   -2942648.6    23999.841   -2918648.7    269589.89    1.1193062    51.273292    51.273292    102.54658 
   22000    26858    299.86786   -1196.7221   -2942984.5    24006.106   -2918978.4    269080.61    1.1214247    51.240985    51.240985    102.48197 
   22100    26858    296.72811    164.41307   -2942961.3    23754.752   -2919206.5     268854.7     1.122367    51.226641    51.226641    102.45328 
   22200    26858    296.68512   -305.60785   -2942815.8     23751.31   -2919064.5    268638.98    1.1232683    51.212936    51.212936    102.42587 
   22300    26858    299.33882    414.28004   -2942588.1    23963.754   -2918624.4     268627.6    1.1233158    51.212214    51.212214    102.42443 
   22400    26858     303.6286   -511.94013   -2942605.3    24307.175   -2918298.1     268675.7    1.1231147     51.21527     51.21527    102.43054 
   22500    26858    300.91771   -932.45277   -2942619.4    24090.153   -2918529.3    268632.45    1.1232956    51.212521    51.212521    102.42504 
   22600    26858    299.61112    715.01467   -2942964.4    23985.552   -2918978.8    268567.58    1.1235669    51.208399    51.208399     102.4168 
   22700    26858    296.33554    1704.3442   -2943026.7    23723.324   -2919303.3    268457.12    1.1240292    51.201377    51.201377    102.40275 
   22800    26858    299.12008   -2839.6143   -2943090.1    23946.242   -2919143.9    268708.35    1.1229782    51.217344    51.217344    102.43469 
   22900    26858    300.55937   -3228.3002   -2942844.5    24061.465     -2918783    268791.79    1.1226296    51.222645    51.222645    102.44529 
   23000    26858    302.85945   -14.687805   -2942786.8      24245.6   -2918541.2    268154.17    1.1252991     51.18211     51.18211    102.36422 
   23100    26858    302.15245   -1174.7722   -2942764.1        24189   -2918575.1     267860.3    1.1265336    51.163406    51.163406    102.32681 
   23200    26858    297.95664    360.79566   -2942713.5    23853.102   -2918860.4     267793.6    1.1268142    51.159159    51.159159    102.31832 
   23300    26858    296.35827   -1269.0168   -2942854.2    23725.144     -2919129    267552.37    1.1278302    51.143793    51.143793    102.28759 
   23400    26858    296.99668   -2204.1612   -2943021.3    23776.252   -2919245.1     267568.3     1.127763    51.144808    51.144808    102.28962 
   23500    26858    299.13155    2241.6175   -2942988.6     23947.16   -2919041.4    267198.21    1.1293251    51.121217    51.121217    102.24243 
   23600    26858    303.49101    983.86852   -2942996.2     24296.16     -2918700    267123.08    1.1296427    51.116425    51.116425    102.23285 
   23700    26858    303.36292    897.72139   -2942878.6    24285.905   -2918592.7    267113.76    1.1296821     51.11583     51.11583    102.23166 
   23800    26858    301.03025   -1361.3912   -2942934.9    24099.162   -2918835.8    267245.37    1.1291258    51.124224    51.124224    102.24845 
   23900    26858    298.55802    1144.7177   -2943029.7    23901.246   -2919128.5    267337.14    1.1287382    51.130076    51.130076    102.26015 
   24000    26858    297.16261   -906.26636   -2943092.6    23789.536     -2919303    267087.54     1.129793    51.114158    51.114158    102.22832 
   24100    26858    299.26161   -332.14041   -2943073.4    23957.573   -2919115.8    266903.88    1.1305704    51.102439    51.102439    102.20488 
   24200    26858    300.39951   -1735.0254   -2942820.3    24048.667   -2918771.6    266896.88    1.1306001    51.101993    51.101993    102.20399 
   24300    26858    300.12058   -1158.9967   -2942628.9    24026.338   -2918602.5     266602.5    1.1318485    51.083197    51.083197    102.16639 
   24400    26858    301.32588   -40.977417   -2942774.1    24122.828   -2918651.3    266363.89    1.1328624    51.067953    51.067953    102.13591 
   24500    26858     299.0045    463.80622   -2942910.4    23936.989   -2918973.4    266349.51    1.1329236    51.067034    51.067034    102.13407 
   24600    26858    298.50511   -144.80657   -2943066.6     23897.01   -2919169.6    266601.59    1.1318524    51.083139    51.083139    102.16628 
   24700    26858    299.56194    1601.1411   -2943014.8    23981.615   -2919033.2    266399.36    1.1327116     51.07022     51.07022    102.14044 
   24800    26858    302.68367    895.04758   -2943043.7    24231.528   -2918812.2    266353.59    1.1329062    51.067295    51.067295    102.13459 
   24900    26858    300.75102   -648.87838   -2942750.5    24076.808   -2918673.7    266580.13    1.1319435    51.081768    51.081768    102.16354 
   25000    26858    301.81186    -544.5208     -2942865    24161.734   -2918703.2     266560.5    1.1320268    51.080515    51.080515    102.16103 
   25100    26858    299.38376   -1266.2857     -2942931    23967.351   -2918963.6    266510.25    1.1322403    51.077305    51.077305    102.15461 
   25200    26858    297.53713    -575.3831   -2942922.2    23819.518   -2919102.6    266527.87    1.1321654    51.078431    51.078431    102.15686 
   25300    26858     300.3461    723.80264   -2943021.7    24044.392   -2918977.3     266396.1    1.1327254    51.070012    51.070012    102.14002 
   25400    26858    301.63151   -1565.0908   -2943012.4    24147.296   -2918865.1    266196.42    1.1335751    51.057249    51.057249     102.1145 
   25500    26858    300.29432    875.56917   -2942929.5    24040.246   -2918889.2       265813    1.1352102    51.032723    51.032723    102.06545 
   25600    26858    301.00504   -1511.8842   -2943071.8    24097.144   -2918974.7    265751.53    1.1354728    51.028789    51.028789    102.05758 
   25700    26858    297.35769    1010.8315   -2942934.1    23805.153     -2919129    265811.17     1.135218    51.032606    51.032606    102.06521 
   25800    26858    300.12233     1890.295   -2943171.7    24026.478   -2919145.3    265734.14    1.1355471    51.027676    51.027676    102.05535 
   25900    26858    298.70675    544.87497   -2942948.5    23913.152   -2919035.3    265641.64    1.1359425    51.021754    51.021754    102.04351 
   26000    26858    301.27303   -1923.4158   -2942936.7    24118.598   -2918818.1    265563.62    1.1362762    51.016759    51.016759    102.03352 
   26100    26858    300.55749   -1150.8371   -2942773.9    24061.315   -2918712.6    265482.01    1.1366256    51.011532    51.011532    102.02306 
   26200    26858     300.8977   -765.97815   -2942888.5    24088.551     -2918800    265499.43     1.136551    51.012648    51.012648     102.0253 
   26300    26858    299.84233   -1244.5159   -2943048.3    24004.062   -2919044.2    265403.41    1.1369622    51.006497    51.006497    102.01299 
   26400    26858    298.03605    1629.3608   -2943055.6     23859.46   -2919196.2    265329.93     1.137277     51.00179     51.00179    102.00358 
   26500    26858    299.33501    323.17603   -2943070.8    23963.449   -2919107.4    265303.11     1.137392    51.000071    51.000071    102.00014 
   26600    26858    299.81814   -1094.1176   -2942973.6    24002.126   -2918971.4    265167.18    1.1379751    50.991359    50.991359    101.98272 
   26700    26858    298.92841     783.6348     -2942875    23930.897   -2918944.1    264944.32    1.1389323    50.977071    50.977071    101.95414 
   26800    26858    301.71247    2249.7458   -2943088.8    24153.777     -2918935    264494.59    1.1408688     50.94821     50.94821    101.89642 
   26900    26858    299.62594   -567.90927     -2943042    23986.739   -2919055.3    264147.73    1.1423669     50.92593     50.92593    101.85186 
   27000    26858    296.31249    981.52099   -2942852.5    23721.479     -2919131    263746.39    1.1441053    50.900125    50.900125    101.80025 
   27100    26858    300.47305    1055.9239   -2943064.4    24054.555   -2919009.8    263491.29     1.145213    50.883708    50.883708    101.76742 
   27200    26858    300.42643   -719.24945     -2942932    24050.823   -2918881.1    263727.69    1.1441864    50.898922    50.898922    101.79784 
   27300    26858    302.69703    993.08147   -2943180.7    24232.597   -2918948.1    263975.97    1.1431102    50.914889    50.914889    101.82978 
   27400    26858    298.43196   -69.929123   -2943142.9    23891.155   -2919251.8    264184.05    1.1422099    50.928264    50.928264    101.85653 
   27500    26858    297.72121     223.0228   -2943187.3    23834.255   -2919353.1    264444.61    1.1410844    50.945001    50.945001       101.89 
   27600    26858    299.39437   -1580.1307   -2943201.4    23968.201   -2919233.2    264525.84    1.1407341    50.950217    50.950217    101.90043 
   27700    26858    300.89619   -485.06198   -2943178.5     24088.43   -2919090.1    264570.18    1.1405429    50.953063    50.953063    101.90613 
   27800    26858    301.36503    547.74745   -2943116.7    24125.963   -2918990.8    264778.94    1.1396436    50.966462    50.966462    101.93292 
   27900    26858    300.07067   -845.82818   -2943028.5    24022.343   -2919006.2    265019.14    1.1386107    50.981868    50.981868    101.96374 
   28000    26858    299.93721   -562.24885     -2943058    24011.658   -2919046.4    265118.21    1.1381853     50.98822     50.98822    101.97644 
   28100    26858    299.38846   -208.91722   -2943088.4    23967.728   -2919120.7    264944.29    1.1389324    50.977068    50.977068    101.95414 
   28200    26858    299.56447   -1284.8763   -2943200.1    23981.818   -2919218.3    264918.08    1.1390451    50.975388    50.975388    101.95078 
   28300    26858    299.29676   -454.39356   -2943227.7    23960.386   -2919267.3    264590.25    1.1404564    50.954352    50.954352     101.9087 
   28400    26858    302.35619     -1038.22   -2943413.9    24205.311   -2919208.6    264507.86    1.1408116    50.949062    50.949062    101.89812 
   28500    26858    299.67189   -392.45468   -2943090.9    23990.417   -2919100.5    264210.83    1.1420941    50.929984    50.929984    101.85997 
   28600    26858    302.50356    1858.5625   -2943226.4    24217.109   -2919009.3    264108.03    1.1425387    50.923378    50.923378    101.84676 
   28700    26858    300.65252   -486.85966   -2943138.8    24068.923   -2919069.9    263996.88    1.1430197    50.916233    50.916233    101.83247 
   28800    26858    299.88345   -343.74521   -2943253.3    24007.354     -2919246    263956.88    1.1431929    50.913661    50.913661    101.82732 
   28900    26858     299.1083   -2980.3822   -2943365.3    23945.299     -2919420    263954.26    1.1432043    50.913493    50.913493    101.82699 
   29000    26858    299.24009    1443.1079   -2943413.9     23955.85     -2919458    263971.54    1.1431295    50.914604    50.914604    101.82921 
   29100    26858    299.72242    1264.3105   -2943291.6    23994.462   -2919297.2    263971.96    1.1431276    50.914631    50.914631    101.82926 
   29200    26858    302.65506    1700.6356   -2943293.1    24229.237   -2919063.9    264024.32    1.1429009    50.917997    50.917997    101.83599 
   29300    26858    301.09529   -20.794823   -2943085.5    24104.369   -2918981.1     264135.1    1.1424216    50.925118    50.925118    101.85024 
   29400    26858    300.26984   -483.38447   -2943134.4    24038.287   -2919096.1    264153.18    1.1423434     50.92628     50.92628    101.85256 
   29500    26858      300.058   -1425.8036   -2943175.1    24021.328   -2919153.8    263993.56    1.1430341     50.91602     50.91602    101.83204 
   29600    26858    301.82195    397.59728   -2943263.9    24162.542   -2919101.3    263823.37    1.1437714    50.905076    50.905076    101.81015 
   29700    26858    300.70075    193.15411   -2943213.9    24072.784   -2919141.1    263818.45    1.1437928     50.90476     50.90476    101.80952 
   29800    26858    301.75775   -705.64265   -2943394.1    24157.402   -2919236.7    263889.03    1.1434869    50.909298    50.909298     101.8186 
   29900    26858    298.09922   -1387.6412   -2943254.4    23864.517   -2919389.8    264011.49    1.1429565    50.917172    50.917172    101.83434 
   30000    26858    298.98678   -729.51042   -2943376.9    23935.571   -2919441.3    263598.43    1.1447475    50.890604    50.890604    101.78121 
   30100    26858    298.58083   -290.77707   -2943213.6    23903.072   -2919310.6    263010.95    1.1473045     50.85277     50.85277    101.70554 
   30200    26858    298.91623    1096.9919   -2943040.5    23929.923   -2919110.6    262652.12    1.1488719    50.829633    50.829633    101.65927 
   30300    26858    300.61495    1883.1146   -2943025.4    24065.915   -2918959.5    262542.27    1.1493526    50.822546    50.822546    101.64509 
   30400    26858    300.48167      776.696   -2943129.2    24055.245   -2919073.9    262657.22    1.1488496    50.829962    50.829962    101.65992 
   30500    26858    299.44827     91.88971   -2943298.8    23972.516   -2919326.3    262400.36    1.1499742    50.813387    50.813387    101.62677 
   30600    26858    299.55566    859.87846   -2943442.8    23981.113   -2919461.7    262301.52    1.1504075    50.807006    50.807006    101.61401 
   30700    26858    298.07225   -2591.1738   -2943293.5    23862.358   -2919431.1     262281.5    1.1504953    50.805714    50.805714    101.61143 
   30800    26858    299.79387    1229.9203   -2943279.9    24000.182   -2919279.7    262042.48    1.1515447    50.790275    50.790275    101.58055 
   30900    26858    299.85284   -2868.6971   -2943200.9    24004.904     -2919196    261960.45    1.1519053    50.784975    50.784975    101.56995 
   31000    26858    299.41432    1634.7947   -2943216.2    23969.798   -2919246.4    261826.33    1.1524954    50.776306    50.776306    101.55261 
   31100    26858    300.51731   -788.18779   -2943305.2    24058.098   -2919247.1    262167.33    1.1509963    50.798341    50.798341    101.59668 
   31200    26858    300.35964   -227.75769   -2943309.5    24045.476     -2919264    262420.18    1.1498873    50.814666    50.814666    101.62933 
   31300    26858    300.30805   -1681.2437   -2943350.8    24041.346   -2919309.4    262736.55    1.1485027    50.835079    50.835079    101.67016 
   31400    26858    299.37971   -52.587792   -2943327.3    23967.027   -2919360.3    262759.67    1.1484016     50.83657     50.83657    101.67314 
   31500    26858    300.19028   -1330.3827   -2943309.3    24031.917   -2919277.4    262816.77    1.1481522    50.840252    50.840252     101.6805 
   31600    26858    301.25699    1305.5816   -2943286.7    24117.314   -2919169.4    262678.01    1.1487587    50.831303    50.831303    101.66261 
   31700    26858    301.61547   -246.23353     -2943385    24146.012     -2919239    262478.69     1.149631    50.818443    50.818443    101.63689 
   31800    26858    300.11514    3046.8453   -2943466.7    24025.902   -2919440.8    262253.31     1.150619    50.803893    50.803893    101.60779 
   31900    26858    297.67689   -1301.2686   -2943468.4    23830.706   -2919637.7    262167.83    1.1509941    50.798373    50.798373    101.59675 
   32000    26858    299.73991   -257.60166   -2943524.7    23995.863   -2919528.9    261638.91     1.153321    50.764188    50.764188    101.52838 
   32100    26858     301.0156   -1990.6312   -2943314.6    24097.989   -2919216.6    261171.16    1.1553865    50.733919    50.733919    101.46784 
   32200    26858    303.42215    354.46082   -2943326.9    24290.647   -2919036.2    260818.55    1.1569485    50.711076    50.711076    101.42215 
   32300    26858    302.54498    22.252407   -2943353.6    24220.424   -2919133.2    260942.25    1.1564001    50.719092    50.719092    101.43818 
   32400    26858    298.80236    875.15419   -2943405.2    23920.806   -2919484.4    261195.01     1.155281    50.735463    50.735463    101.47093 
   32500    26858    298.76937   -2755.9201   -2943568.2    23918.166   -2919650.1    261366.66    1.1545223    50.746575    50.746575    101.49315 
   32600    26858    300.38505     2271.763     -2943591     24047.51   -2919543.4     261049.1    1.1559267    50.726014    50.726014    101.45203 
   32700    26858    301.12228    101.97798   -2943448.6    24106.529   -2919342.1    261122.55    1.1556016    50.730771    50.730771    101.46154 
   32800    26858     300.6468   -1239.1104   -2943252.1    24068.464   -2919183.6    261701.01    1.1530473    50.768204    50.768204    101.53641 
   32900    26858    301.65104    231.49602   -2943381.2     24148.86   -2919232.3    262124.49    1.1511844    50.795573    50.795573    101.59115 
   33000    26858     298.9681    314.76266     -2943400    23934.076   -2919465.9    262208.52    1.1508155    50.801001    50.801001      101.602 
   33100    26858    300.20446    1088.3679   -2943570.1    24033.053   -2919537.1    262210.25     1.150808    50.801112    50.801112    101.60222 
   33200    26858    298.16968    463.82536   -2943405.3    23870.157   -2919535.1    262178.05    1.1509493    50.799033    50.799033    101.59807 
   33300    26858    300.85209    -441.4551     -2943468    24084.899   -2919383.1    262269.55    1.1505477    50.804942    50.804942    101.60988 
   33400    26858    302.09008   -1697.1988   -2943516.2    24184.008   -2919332.2    262453.89    1.1497396    50.816842    50.816842    101.63368 
   33500    26858    300.19818    145.05517   -2943486.6     24032.55   -2919454.1    262450.26    1.1497555    50.816608    50.816608    101.63322 
   33600    26858     297.3736   -749.31383   -2943459.2    23806.426   -2919652.8    262460.17    1.1497121    50.817248    50.817248     101.6345 
   33700    26858    297.83725   -1455.0209     -2943508    23843.545   -2919664.5     262216.7    1.1507796    50.801529    50.801529    101.60306 
   33800    26858    301.83047    739.24732   -2943627.2    24163.224     -2919464    261991.37    1.1517694    50.786973    50.786973    101.57395 
   33900    26858     299.1747   -379.83101   -2943434.6    23950.615     -2919484    262055.05    1.1514895    50.791087    50.791087    101.58217 
   34000    26858    296.65049   -1098.8135   -2943308.1    23748.538   -2919559.5    262144.48    1.1510966    50.796865    50.796865    101.59373 
   34100    26858    298.60636   -909.03791   -2943392.3    23905.116   -2919487.2    262039.31    1.1515587     50.79007     50.79007    101.58014 
   34200    26858    301.44256    1814.5599   -2943476.9     24132.17   -2919344.7    261691.75    1.1530881    50.767605    50.767605    101.53521 
   34300    26858    299.63203    980.66157   -2943199.2    23987.226     -2919212    261870.85    1.1522994    50.779185    50.779185    101.55837 
   34400    26858     304.3821    969.78793   -2943418.2    24367.496   -2919050.7     261733.9    1.1529024    50.770331    50.770331    101.54066 
   34500    26858    299.73861   -720.87722   -2943279.2    23995.759   -2919283.4    261746.41    1.1528473     50.77114     50.77114    101.54228 
   34600    26858    299.12103    1286.6356     -2943435    23946.318   -2919488.7    261328.43    1.1546912      50.7441      50.7441     101.4882 
   34700    26858    300.31687    1175.2183   -2943523.7    24042.052   -2919481.6    261438.67    1.1542043    50.751234    50.751234    101.50247 
   34800    26858    300.31397   -39.312969   -2943649.2     24041.82   -2919607.4    261603.53    1.1534769      50.7619      50.7619     101.5238 
   34900    26858    297.54552   -2540.2539   -2943647.6     23820.19   -2919827.4    261840.43    1.1524333    50.777218    50.777218    101.55444 
   35000    26858     299.0803   -2175.8431   -2943692.1    23943.058   -2919749.1    261793.12    1.1526416     50.77416     50.77416    101.54832 
   35100    26858    300.47213   -1891.7429   -2943655.7    24054.482   -2919601.2    261706.68    1.1530223    50.768571    50.768571    101.53714 
   35200    26858    298.83798    787.26573   -2943477.6    23923.658     -2919554    261771.71    1.1527359    50.772776    50.772776    101.54555 
   35300    26858    300.37299   -650.75726   -2943469.1    24046.545   -2919422.6    261902.73    1.1521592    50.781245    50.781245    101.56249 
   35400    26858    300.07586   -2102.9819   -2943360.3    24022.757   -2919337.5    261936.56    1.1520104    50.783431    50.783431    101.56686 
   35500    26858    300.13926   -1170.5955   -2943264.8    24027.833     -2919237    261806.74    1.1525816     50.77504     50.77504    101.55008 
   35600    26858    301.26448    709.32511   -2943309.9    24117.913     -2919192    261565.44    1.1536449    50.759436    50.759436    101.51887 
   35700    26858    303.22178   -36.069546   -2943770.3    24274.606   -2919495.7    261478.47    1.1540286     50.75381     50.75381    101.50762 
   35800    26858    300.12399    1201.8092   -2943657.8    24026.611   -2919631.2    261469.14    1.1540698    50.753206    50.753206    101.50641 
   35900    26858     297.2124    823.74938   -2943360.6    23793.522     -2919567    261389.42    1.1544218    50.748048    50.748048     101.4961 
   36000    26858    300.21869   -314.18704   -2943399.9    24034.192   -2919365.7     261234.6    1.1551059    50.738026    50.738026    101.47605 
   36100    26858    301.31236    343.63766   -2943421.3    24121.746   -2919299.5    260999.41    1.1561468    50.722795    50.722795    101.44559 
   36200    26858    302.16198   -200.34435   -2943622.9    24189.764   -2919433.1    260784.28    1.1571006    50.708855    50.708855    101.41771 
   36300    26858    299.36101   -189.40127   -2943760.3     23965.53   -2919794.7    260647.69    1.1577069         50.7         50.7        101.4 
   36400    26858    299.00667   -851.33744   -2943642.5    23937.163   -2919705.3    260879.41    1.1566786     50.71502     50.71502    101.43004 
   36500    26858    301.56687    1563.4114   -2943577.1    24142.122     -2919435    261024.92    1.1560338    50.724447    50.724447    101.44889 
   36600    26858      302.443    1038.3379   -2943590.8    24212.261   -2919378.5    261089.26    1.1557489    50.728615    50.728615    101.45723 
   36700    26858    299.86626   -838.69999     -2943544    24005.978     -2919538    261177.99    1.1553563    50.734361    50.734361    101.46872 
   36800    26858     299.0719    347.17371   -2943632.2    23942.385   -2919689.9    261062.66    1.1558667    50.726892    50.726892    101.45378 
   36900    26858    297.46749    713.34328   -2943536.3    23813.943   -2919722.3    261088.14    1.1557539    50.728543    50.728543    101.45709 
   37000    26858    304.30273   -495.17692   -2943764.3    24361.143   -2919403.1    261134.91    1.1555469    50.731571    50.731571    101.46314 
   37100    26858    298.95743   -1354.6226     -2943287    23933.221   -2919353.8    261098.85    1.1557065    50.729236    50.729236    101.45847 
   37200    26858    301.50268   -1708.7709   -2943476.9    24136.982   -2919339.9     260793.6    1.1570592    50.709459    50.709459    101.41892 
   37300    26858    299.72567    500.51798   -2943553.8    23994.723   -2919559.1    260299.35    1.1592562    50.677404    50.677404    101.35481 
   37400    26858    298.14468    2241.0016   -2943589.9    23868.156   -2919721.7    260109.22    1.1601036    50.665063    50.665063    101.33013 
   37500    26858    300.26681    710.08493   -2943719.1    24038.044   -2919681.1    260143.08    1.1599526    50.667261    50.667261    101.33452 
   37600    26858    301.00304   -558.41478   -2943756.4    24096.984   -2919659.4    260377.59    1.1589079    50.682481    50.682481    101.36496 
   37700    26858    297.01632   -605.78179   -2943757.6    23777.824   -2919979.7       260246    1.1594938    50.673942    50.673942    101.34788 
   37800    26858    297.56671   -1241.8023   -2943764.9    23821.886     -2919943    260140.79    1.1599628    50.667112    50.667112    101.33422 
   37900    26858    300.20359    -1609.166   -2943705.8    24032.983   -2919672.8    260123.63    1.1600393    50.665998    50.665998      101.332 
   38000    26858    298.78912    711.51638   -2943506.7    23919.747   -2919586.9    260079.29    1.1602371    50.663119    50.663119    101.32624 
   38100    26858    298.46458    1625.8031   -2943426.9    23893.766   -2919533.1    260112.87    1.1600873    50.665299    50.665299     101.3306 
   38200    26858    301.61159    1142.5861   -2943526.8    24145.702   -2919381.1    260240.96    1.1595163    50.673615    50.673615    101.34723 
   38300    26858    299.49897   -1042.8016   -2943233.8    23976.575   -2919257.2    260118.77     1.160061    50.665683    50.665683    101.33137 
   38400    26858     301.5279    459.17077   -2943424.1    24139.002   -2919285.1    259983.87    1.1606629    50.656922    50.656922    101.31384 
   38500    26858    299.49743    2050.2119   -2943531.6    23976.451   -2919555.1    259815.87    1.1614134    50.646009    50.646009    101.29202 
   38600    26858    302.91774    651.23718   -2943971.4    24250.267   -2919721.1    259404.41    1.1632556     50.61926     50.61926    101.23852 
   38700    26858    299.46739    293.81098   -2943822.8    23974.046   -2919848.7    259110.89    1.1645733     50.60016     50.60016    101.20032 
   38800    26858    298.66483    211.19444   -2943687.4    23909.797   -2919777.6    258879.52    1.1656142    50.585095    50.585095    101.17019 
   38900    26858    302.58905   -782.31887   -2943790.7    24223.952   -2919566.7    258818.31    1.1658898    50.581108    50.581108    101.16222 
   39000    26858    301.33835    136.68763   -2943682.6    24123.827   -2919558.8    258832.11    1.1658277    50.582007    50.582007    101.16401 
   39100    26858    300.56944   -391.45465   -2943696.4    24062.271   -2919634.1    258956.39    1.1652681    50.590101    50.590101     101.1802 
   39200    26858    297.74206   -62.218715   -2943658.8    23835.924   -2919822.8    258708.76    1.1663835     50.57397     50.57397    101.14794 
   39300    26858    298.98506   -288.20776   -2943879.3    23935.433   -2919943.9    258485.17    1.1673924    50.559396    50.559396    101.11879 
   39400    26858     298.9858   -808.83773   -2943840.4    23935.492   -2919904.9     258210.2    1.1686356    50.541462    50.541462    101.08292 
   39500    26858    301.20845    1742.4427   -2943724.2    24113.428   -2919610.8    257636.08    1.1712398    50.503975    50.503975    101.00795 
   39600    26858    302.26094    1762.6104   -2943758.3    24197.685   -2919560.6    257560.16    1.1715851    50.499014    50.499014    100.99803 
   39700    26858    297.37567    566.37272   -2943587.6    23806.592     -2919781    257444.69    1.1721105    50.491466    50.491466    100.98293 
   39800    26858    298.90617   -1979.4296   -2943771.3    23929.117   -2919842.2    257651.43    1.1711701    50.504978    50.504978    101.00996 
   39900    26858    298.09455    -335.3806   -2943644.3    23864.143   -2919780.1    257776.08    1.1706037    50.513122    50.513122    101.02624 
   40000    26858    301.73185    1339.9369   -2943853.9    24155.329   -2919698.6    257620.46    1.1713108    50.502954    50.502954    101.00591 
   40100    26858    299.71334   -1045.3533   -2943553.1    23993.736   -2919559.4    257594.82    1.1714274    50.501279    50.501279    101.00256 
   40200    26858     301.8575   -221.94107   -2943562.7    24165.388   -2919397.3    257651.08    1.1711716    50.504955    50.504955    101.00991 
   40300    26858     300.3459   -1294.4848   -2943658.2    24044.376   -2919613.8    257447.96    1.1720957     50.49168     50.49168    100.98336 
   40400    26858     297.9776   -265.59522   -2943701.7     23854.78   -2919846.9    257276.84    1.1728753     50.48049     50.48049    100.96098 
   40500    26858     300.3326   -425.47326   -2943892.1    24043.311   -2919848.8    257037.59     1.173967    50.464838    50.464838    100.92968 
   40600    26858     299.5169   -242.48963   -2943762.7     23978.01   -2919784.7    256916.78     1.174519     50.45693     50.45693    100.91386 
   40700    26858    299.08326   -76.718016   -2943579.7    23943.294   -2919636.5    256819.13    1.1749656    50.450537    50.450537    100.90107 
   40800    26858    302.66458    450.14538   -2943648.3    24229.999   -2919418.3     256493.3    1.1764581    50.429192    50.429192    100.85838 
   40900    26858    301.56895   -180.45525   -2943682.6    24142.288   -2919540.3    256521.33    1.1763296    50.431029    50.431029    100.86206 
   41000    26858     298.7928    84.992915   -2943682.7    23920.041   -2919762.7    256709.17    1.1754689    50.443335    50.443335    100.88667 
   41100    26858    298.64606   -2258.5545   -2943750.5    23908.294   -2919842.2     256975.8    1.1742492    50.460794    50.460794    100.92159 
   41200    26858    298.35256   -1578.1654   -2943790.3    23884.798   -2919905.5    257247.06     1.173011    50.478542    50.478542    100.95708 
   41300    26858    298.04603    641.26252   -2943733.1    23860.258   -2919872.8    257260.49    1.1729498    50.479421    50.479421    100.95884 
   41400    26858    300.65001    374.45867   -2943625.5    24068.722   -2919556.8    257264.25    1.1729326    50.479667    50.479667    100.95933 
   41500    26858    300.97654    868.24115   -2943631.5    24094.862   -2919536.7    257052.93    1.1738969    50.465842    50.465842    100.93168 
   41600    26858    301.09169   -2224.9773   -2943802.4    24104.081   -2919698.3    257177.54    1.1733281    50.473995    50.473995    100.94799 
   41700    26858    299.89156    413.03314   -2943837.3    24008.003   -2919829.3    257260.84    1.1729482    50.479444    50.479444    100.95889 
   41800    26858    298.36061    875.76369   -2943723.7    23885.442   -2919838.2    257070.84    1.1738151    50.467014    50.467014    100.93403 
   41900    26858    300.46285    1989.6559   -2943862.1    24053.738   -2919808.4     256748.2    1.1752902    50.445892    50.445892    100.89178 
   42000    26858    300.49654   -1292.7566   -2943893.4    24056.436   -2919836.9     256887.7     1.174652    50.455026    50.455026    100.91005 
   42100    26858    298.91063    585.73195   -2943826.2    23929.474   -2919896.7    256914.79    1.1745281      50.4568      50.4568     100.9136 
   42200    26858    298.79748   -2497.1894   -2943909.5    23920.416     -2919989    256985.32    1.1742058    50.461417    50.461417    100.92283 
   42300    26858    298.63928    1715.8151   -2943873.5    23907.751   -2919965.8    257326.87    1.1726472    50.483763    50.483763    100.96753 
   42400    26858    301.44234   -342.45679   -2943830.5    24132.152   -2919698.4    257719.26    1.1708618     50.50941     50.50941    101.01882 
   42500    26858    300.10478    3121.4569   -2943640.6    24025.073   -2919615.5    257600.78    1.1714003    50.501669    50.501669    101.00334 
   42600    26858     299.6738    3074.8052   -2943652.6    23990.571     -2919662    257367.56    1.1724618    50.486423    50.486423    100.97285 
   42700    26858    298.56708   -1493.7538   -2943809.2    23901.971   -2919907.2    257563.85    1.1715683    50.499255    50.499255    100.99851 
   42800    26858    298.37967    51.987202   -2943991.7    23886.968   -2920104.7    257531.44    1.1717157    50.497137    50.497137    100.99427 
   42900    26858    297.59892    -507.5116   -2943840.2    23824.465   -2920015.8    257425.31    1.1721988    50.490199    50.490199     100.9804 
   43000    26858    301.07921      105.327   -2943900.2    24103.082   -2919797.1    257266.79    1.1729211    50.479833    50.479833    100.95967 
   43100    26858    301.18421   -37.661774   -2943856.5    24111.488     -2919745    257513.24    1.1717985    50.495947    50.495947    100.99189 
   43200    26858    301.53726   -1949.3159   -2943874.3    24139.751   -2919734.5    257448.04    1.1720953    50.491685    50.491685    100.98337 
   43300    26858    299.98364   -1771.6218   -2943832.8    24015.375   -2919817.4     257234.3    1.1730692    50.477708    50.477708    100.95542 
   43400    26858    300.22431    4010.4806   -2944020.5    24034.642   -2919985.9       257018    1.1740564    50.463556    50.463556    100.92711 
   43500    26858     298.4882    1741.8315   -2944001.7    23895.657     -2920106    257318.17    1.1726868    50.483194    50.483194    100.96639 
   43600    26858    297.07731    774.14349   -2943728.5    23782.707   -2919945.8    257640.02    1.1712219    50.504233    50.504233    101.00847 
   43700    26858    301.50669    773.28978     -2943781    24137.304   -2919643.7    257635.56    1.1712422    50.503941    50.503941    101.00788 
   43800    26858    299.77374   -303.21023   -2943590.9    23998.571   -2919592.3    257619.74    1.1713141    50.502907    50.502907    101.00581 
   43900    26858     301.0732    1951.4105     -2943693      24102.6   -2919590.4    257583.59    1.1714785    50.500545    50.500545    101.00109 
   44000    26858    300.45154   -609.42499   -2943835.8    24052.833     -2919783    257501.29    1.1718529    50.495166    50.495166    100.99033 
   44100    26858    299.78206    1489.8355     -2944001    23999.238   -2920001.8    257630.91    1.1712633    50.503637    50.503637    101.00727 
   44200    26858    298.22402    418.61308   -2943854.9    23874.508   -2919980.4    257569.06    1.1715446    50.499595    50.499595    100.99919 
   44300    26858    300.05053   -604.68046   -2943836.7     24020.73     -2919816    257136.27    1.1735164    50.471295    50.471295    100.94259 
   44400    26858    298.79401    2559.5189   -2943748.8    23920.138   -2919828.6    256715.56    1.1754396    50.443754    50.443754    100.88751 
   44500    26858    301.41772    53.374106   -2943963.5    24130.181   -2919833.3    256542.28    1.1762336    50.432402    50.432402     100.8648 
   44600    26858    299.33274    152.38602   -2943846.9    23963.267   -2919883.6    256393.96     1.176914    50.422681    50.422681    100.84536 
   44700    26858    299.61134    4239.4773   -2943840.9    23985.571   -2919855.4    256044.72    1.1785193    50.399776    50.399776    100.79955 
   44800    26858    301.37094    131.21675   -2943763.9    24126.436   -2919637.5    256207.71    1.1777695    50.410469    50.410469    100.82094 
   44900    26858    301.67849    2070.1818   -2943572.3    24151.057   -2919421.2    256431.18    1.1767431    50.425121    50.425121    100.85024 
   45000    26858    299.72103   -262.38347   -2943563.7    23994.352   -2919569.3    257046.29    1.1739272    50.465407    50.465407    100.93081 
   45100    26858    300.10378   -1373.6327   -2943768.9    24024.992   -2919743.9     257463.7     1.172024    50.492709    50.492709    100.98542 
   45200    26858     300.9533    -127.1779   -2943832.1    24093.001   -2919739.1     257714.5    1.1708834    50.509098    50.509098     101.0182 
   45300    26858    300.27364    91.555101     -2943795    24038.591   -2919756.4    257881.28    1.1701262    50.519992    50.519992    101.03998 
   45400    26858    299.13289   -935.12705   -2943871.1    23947.268   -2919923.9    257924.51    1.1699301    50.522815    50.522815    101.04563 
   45500    26858    298.15435   -638.36316   -2943999.3     23868.93   -2920130.4    257717.97    1.1708677    50.509325    50.509325    101.01865 
   45600    26858    297.90566   -339.50707   -2943977.5    23849.021   -2920128.5    257592.57    1.1714377    50.501132    50.501132    101.00226 
   45700    26858    300.72428   -1519.0435     -2943873    24074.668   -2919798.4    257444.95    1.1721093    50.491483    50.491483    100.98297 
   45800    26858    300.71287    1608.5641   -2943734.5    24073.754   -2919660.7    257474.71    1.1719739    50.493429    50.493429    100.98686 
   45900    26858    302.18504    1227.4018   -2943802.7    24191.609   -2919611.1    257343.04    1.1725735     50.48482     50.48482    100.96964 
   46000    26858    297.97844    60.707763     -2943698    23854.847   -2919843.2    257163.86    1.1733905      50.4731      50.4731     100.9462 
   46100    26858    298.58336    1009.7084   -2943866.9    23903.275   -2919963.6    256998.89    1.1741437    50.462305    50.462305    100.92461 
   46200    26858    296.73316    1599.6129   -2943639.7    23755.156   -2919884.6     256823.2     1.174947    50.450803    50.450803    100.90161 
   46300    26858    300.18979   -1886.8359   -2943834.3    24031.879   -2919802.4    256928.46    1.1744656    50.457695    50.457695    100.91539 
   46400    26858    299.99017   -1052.0307   -2943791.8    24015.897   -2919775.9    256968.49    1.1742827    50.460315    50.460315    100.92063 
   46500    26858    300.26299   -698.00177   -2943746.8    24037.739   -2919709.1    257236.88    1.1730574    50.477877    50.477877    100.95575 
   46600    26858    302.23642    484.16306   -2943849.2    24195.722   -2919653.4    257438.01     1.172141    50.491029    50.491029    100.98206 
   46700    26858     299.9458   -966.82699   -2943914.8    24012.346   -2919902.5     257330.2     1.172632     50.48398     50.48398    100.96796 
   46800    26858      299.083   -179.05562   -2944024.6    23943.274   -2920081.3    256917.53    1.1745156    50.456979    50.456979    100.91396 
   46900    26858    297.08255    594.65733     -2943775    23783.127   -2919991.9    256747.89    1.1752916    50.445872    50.445872    100.89174 
   47000    26858    299.61266     -1487.02   -2943756.6    23985.676   -2919770.9    256843.53    1.1748539    50.452135    50.452135    100.90427 
   47100    26858    299.80373    732.12909   -2943721.8    24000.972   -2919720.8    256708.49     1.175472    50.443291    50.443291    100.88658 
   47200    26858    301.50865    -1128.425   -2943868.6    24137.461   -2919731.2    256772.15    1.1751805    50.447461    50.447461    100.89492 
   47300    26858    299.69286    563.30927   -2943967.1    23992.096     -2919975    256667.63    1.1756591    50.440614    50.440614    100.88123 
   47400    26858    296.64984    88.303013   -2943909.7    23748.486   -2920161.2    256700.15    1.1755102    50.442745    50.442745    100.88549 
   47500    26858    297.40452   -2307.7428   -2943851.6    23808.902   -2920042.7     256733.6     1.175357    50.444936    50.444936    100.88987 
   47600    26858    300.32355    2804.8486   -2943916.4    24042.587   -2919873.8    256872.45    1.1747217    50.454028    50.454028    100.90806 
   47700    26858    299.28354     704.5832   -2943655.8    23959.328   -2919696.4    257216.72    1.1731494    50.476558    50.476558    100.95312 
   47800    26858    301.23702    696.93158   -2943777.7    24115.715     -2919662    257172.06    1.1733531    50.473636    50.473636    100.94727 
   47900    26858    302.22033    206.91536   -2944023.6    24194.434   -2919829.2    257048.93    1.1739151     50.46558     50.46558    100.93116 
   48000    26858    296.78413   -274.31121   -2943909.9    23759.236   -2920150.7    257052.08    1.1739008    50.465786    50.465786    100.93157 
   48100    26858    297.72409    404.50687     -2944059    23834.486   -2920224.5     257122.7    1.1735783    50.470407    50.470407    100.94081 
   48200    26858      297.604   -1268.6503   -2943905.4    23824.872   -2920080.6     257259.3    1.1729552    50.479343    50.479343    100.95869 
   48300    26858    299.87078   -1109.7346   -2943907.5     24006.34   -2919901.1    257196.32    1.1732424    50.475223    50.475223    100.95045 
   48400    26858    298.76527   -2425.2883   -2943730.8    23917.838     -2919813    257214.19    1.1731609    50.476392    50.476392    100.95278 
   48500    26858    300.95458   -1556.8504   -2943841.2    24093.104   -2919748.1    257249.67    1.1729991    50.478713    50.478713    100.95743 
   48600    26858    299.81899    1767.1816   -2943691.9    24002.194   -2919689.7    256865.58    1.1747531    50.453578    50.453578    100.90716 
   48700    26858    303.07036   -120.85814   -2943803.7    24262.484   -2919541.2    256737.72    1.1753381    50.445206    50.445206    100.89041 
   48800    26858    302.05874    2314.1112   -2943850.2    24181.498   -2919668.7    256529.45    1.1762924    50.431561    50.431561    100.86312 
   48900    26858     301.1065   -182.98664   -2944014.5    24105.266   -2919909.2    256691.84    1.1755482      50.4422      50.4422     100.8844 
   49000    26858    299.32701    2157.7657   -2943983.5    23962.808   -2920020.7    256641.75    1.1757777    50.438919    50.438919    100.87784 
   49100    26858    297.48079    407.16783     -2943820    23815.008     -2920005    256681.89    1.1755938    50.441548    50.441548     100.8831 
   49200    26858     299.1307   -1269.1586   -2943771.6    23947.093   -2919824.5    256935.99    1.1744312    50.458187    50.458187    100.91637 
   49300    26858    301.33154   -420.67373   -2943659.1    24123.282   -2919535.8    256725.93    1.1753921    50.444434    50.444434    100.88887 
   49400    26858    301.58994   -2466.7561   -2943774.4    24143.968   -2919630.4    256606.68    1.1759384    50.436621    50.436621    100.87324 
   49500    26858    300.48266   -1042.0468   -2943836.3    24055.324     -2919781    256373.05      1.17701     50.42131     50.42131    100.84262 
   49600    26858    298.81551   -662.34571     -2943793     23921.86   -2919871.1    256407.65    1.1768511    50.423578    50.423578    100.84716 
   49700    26858    300.20591   -1354.9634   -2943904.7    24033.169   -2919871.5    256436.85    1.1767171    50.425492    50.425492    100.85098 
   49800    26858    298.36067    477.21437   -2943853.9    23885.447   -2919968.4    256235.04    1.1776439    50.412261    50.412261    100.82452 
   49900    26858    298.30125   -1055.6215     -2944061     23880.69   -2920180.3    256182.98    1.1778832    50.408846    50.408846    100.81769 
   50000    26858    297.95939   -628.67933   -2944013.6    23853.323   -2920160.3     256025.1    1.1786096    50.398489    50.398489    100.79698 
   50100    26858    299.27879   -129.37881   -2943854.8    23958.948   -2919895.8    256106.13    1.1782367    50.403806    50.403806    100.80761 
   50200    26858    300.69897   -87.636024   -2943878.1    24072.642   -2919805.5    256260.86    1.1775253    50.413954    50.413954    100.82791 
   50300    26858    299.63284    3102.0844   -2943857.4    23987.291   -2919870.1    256647.36     1.175752    50.439287    50.439287    100.87857 
   50400    26858    300.64082    367.53709   -2944032.6    24067.986   -2919964.7    257045.99    1.1739286    50.465387    50.465387    100.93077 
   50500    26858     297.0063    1054.9163   -2943893.8    23777.022   -2920116.7    257153.34    1.1734385    50.472412    50.472412    100.94482 
   50600    26858    301.04165   -2091.4471   -2944124.1    24100.075   -2920024.1    256957.92    1.1743309    50.459623    50.459623    100.91925 
   50700    26858    299.38894    711.02111   -2943817.3    23967.766   -2919849.5    256737.09     1.175341    50.445164    50.445164    100.89033 
   50800    26858    300.47562    1859.6907   -2943757.9    24054.761   -2919703.2    256607.68    1.1759338    50.436687    50.436687    100.87337 
   50900    26858    301.50554   -1314.1252   -2943756.3    24137.211   -2919619.1    256511.71    1.1763737    50.430398    50.430398     100.8608 
[...]
  187600    26858    301.57292    300.39604   -2944893.1    24142.606   -2920750.5    249959.09    1.2072121    49.997272    49.997272    99.994545 
  187700    26858    299.25424    494.14928   -2944742.8    23956.982   -2920785.8    249972.71    1.2071463    49.998181    49.998181    99.996361 
  187800    26858    300.31313    615.63247   -2944930.3    24041.753   -2920888.6    249877.17    1.2076079     49.99181     49.99181     99.98362 
  187900    26858    298.28692   -916.38345   -2944870.9    23879.543   -2920991.4     249902.2    1.2074869    49.993479    49.993479    99.986959 
  188000    26858    299.63682     790.2711   -2944764.7     23987.61   -2920777.1     250090.6    1.2065773    50.006039    50.006039    100.01208 
  188100    26858    303.01122   -1500.7062   -2944821.2     24257.75   -2920563.4     250390.2    1.2051336       50.026       50.026      100.052 
  188200    26858     302.5629    622.41532   -2944839.6    24221.859   -2920617.7    250519.87    1.2045098    50.034634    50.034634    100.06927 
  188300    26858    299.09062   -2387.7506   -2944783.5    23943.884   -2920839.6    250677.95    1.2037502    50.045156    50.045156    100.09031 
  188400    26858     297.6939   -179.17135   -2944728.2    23832.069   -2920896.2    250539.43    1.2044157    50.035936    50.035936    100.07187 
  188500    26858    298.69669    466.08897   -2944690.3    23912.347     -2920778    250374.99    1.2052068    50.024987    50.024987    100.04997 
  188600    26858    301.10115    2323.4102   -2944778.5    24104.838   -2920673.6    250417.87    1.2050004    50.027842    50.027842    100.05568 
  188700    26858    301.80313     892.9121   -2944817.5    24161.035   -2920656.5    250357.38    1.2052916    50.023814    50.023814    100.04763 
  188800    26858    301.28873    1937.1852   -2944844.9    24119.855   -2920725.1    250223.49    1.2059365    50.014895    50.014895    100.02979 
  188900    26858    297.82122    229.64254   -2944923.4    23842.261   -2921081.1     250123.6    1.2064181    50.008239    50.008239    100.01648 
  189000    26858    298.67048   -400.79652   -2945009.7    23910.249   -2921099.5    250114.86    1.2064602    50.007656    50.007656    100.01531 
  189100    26858    299.81319    637.72819   -2944914.4    24001.729   -2920912.6       250101    1.2065271    50.006732    50.006732    100.01346 
  189200    26858    301.34736    -555.4298   -2944901.2    24124.548   -2920776.7    250203.25     1.206034    50.013547    50.013547    100.02709 
  189300    26858    301.05805   -2264.5707   -2944820.8    24101.388   -2920719.4    250393.77    1.2051164    50.026238    50.026238    100.05248 
  189400    26858    298.19528   -122.64217   -2944640.4    23872.207   -2920768.2    250228.48    1.2059124    50.015227    50.015227    100.03045 
  189500    26858    298.03002   -281.68611   -2944779.2    23858.976   -2920920.3    250368.74    1.2052368    50.024571    50.024571    100.04914 
  189600    26858    299.52139    1217.5161   -2944865.3    23978.369     -2920887    250713.65    1.2035788    50.047532    50.047532    100.09506 
  189700    26858    300.52171    725.88553   -2944686.7    24058.451   -2920628.2    251018.42    1.2021175    50.067802    50.067802     100.1356 
  189800    26858    297.94777    433.39347   -2944350.7    23852.392   -2920498.3    251273.05    1.2008993    50.084726    50.084726    100.16945 
  189900    26858    301.27626   -876.04319   -2944558.9    24118.856     -2920440     251071.9    1.2018614    50.071358    50.071358    100.14272 
  190000    26858    299.71365   -381.58345   -2944609.3     23993.76   -2920615.5    250824.53    1.2030467    50.054908    50.054908    100.10982 
  190100    26858    298.73878    1029.1363   -2944802.4    23915.717   -2920886.7    250674.99    1.2037644    50.044959    50.044959    100.08992 
  190200    26858    300.01972   -801.05351     -2944861    24018.264   -2920842.8    250744.22    1.2034321    50.049565    50.049565    100.09913 
  190300    26858    300.34976   -421.73103   -2944697.2    24044.685   -2920652.5    250638.72    1.2039386    50.042545    50.042545    100.08509 
  190400    26858    302.65771    2371.0557   -2944772.8    24229.449   -2920543.4    250611.74    1.2040683    50.040749    50.040749     100.0815 
  190500    26858    301.35617   -753.76396   -2944812.9    24125.253   -2920687.6    251007.61    1.2021693    50.067084    50.067084    100.13417 
  190600    26858    296.93292    653.18066     -2944702    23771.148   -2920930.8    250973.94    1.2023306    50.064845    50.064845    100.12969 
  190700    26858    300.22367    581.42198   -2944920.6    24034.591     -2920886    250540.36    1.2044113    50.035998    50.035998      100.072 
  190800    26858    298.42989   -1384.4368   -2944638.8    23890.988   -2920747.8    250352.57    1.2053147    50.023493    50.023493    100.04699 
  190900    26858    300.12928   -171.26373   -2944613.4    24027.034   -2920586.4    250244.83    1.2058336    50.016317    50.016317    100.03263 
  191000    26858    301.03259    1415.4732   -2944779.1     24099.35   -2920679.7    250097.26    1.2065452    50.006483    50.006483    100.01297 
  191100    26858    300.08882   -396.89028   -2944999.5    24023.795   -2920975.7    249984.79     1.207088    49.998986    49.998986    99.997972 
  191200    26858    298.00754   -1970.0511   -2944850.4    23857.177   -2920993.2    249640.57    1.2087524    49.976027    49.976027    99.952053 
  191300    26858    300.66528    622.79702   -2944925.1    24069.944   -2920855.1    249389.29    1.2099703    49.959252    49.959252    99.918505 
  191400    26858    299.25363    995.51303   -2944712.1    23956.933   -2920755.1    249445.47    1.2096978    49.963004    49.963004    99.926008 
  191500    26858     300.8817    1193.6848   -2944768.2     24087.27   -2920680.9    249805.42    1.2079547    49.987025    49.987025    99.974049 
  191600    26858    299.63165   -706.81727   -2944761.6    23987.196   -2920774.4    250233.99    1.2058859    50.015594    50.015594    100.03119 
  191700    26858    297.05976   -2429.6923   -2944744.4    23781.302   -2920963.1    250582.66     1.204208    50.038814    50.038814    100.07763 
  191800    26858    297.36286   -267.67951   -2944619.1    23805.566   -2920813.5    250752.17    1.2033939    50.050094    50.050094    100.10019 
  191900    26858    300.54119    1025.7098   -2944680.5     24060.01   -2920620.4    250869.96    1.2028289     50.05793     50.05793    100.11586 
  192000    26858    300.87521    1902.9484   -2944716.6    24086.751   -2920629.9    250819.95    1.2030687    50.054604    50.054604    100.10921 
  192100    26858    298.17792    1440.8662   -2944722.5    23870.817   -2920851.7     250909.2    1.2026408     50.06054     50.06054    100.12108 
  192200    26858    301.21924    50.402684   -2945034.3    24114.291     -2920920    250823.42    1.2030521    50.054835    50.054835    100.10967 
  192300    26858    299.23325    223.65623   -2944829.6    23955.302   -2920874.3     251031.5    1.2020549    50.068673    50.068673    100.13735 
  192400    26858    301.46697   -1103.8238   -2944947.1    24134.124     -2920813    251202.71    1.2012356    50.080053    50.080053    100.16011 
  192500    26858    299.94184   -638.40377   -2944836.4    24012.029   -2920824.3    251009.46    1.2021604    50.067207    50.067207    100.13441 
  192600    26858    299.56872   -1014.3558   -2944742.9    23982.158   -2920760.8     250748.4     1.203412    50.049843    50.049843    100.09969 
  192700    26858    303.00259    1139.3789   -2944663.8    24257.059   -2920406.7    250810.41    1.2031145    50.053969    50.053969    100.10794 
  192800    26858    301.32457   -1265.7007   -2944561.1    24122.724   -2920438.4    251292.79     1.200805    50.086038    50.086038    100.17208 
  192900    26858    299.88748    1805.9501   -2944680.6    24007.677   -2920672.9    251271.27    1.2009078    50.084608    50.084608    100.16922 
  193000    26858    297.77813   -167.49734   -2944608.3    23838.812   -2920769.5    251154.39    1.2014667    50.076841    50.076841    100.15368 
  193100    26858    300.63923   -2551.0576     -2944733    24067.859   -2920665.2    250991.93    1.2022444    50.066041    50.066041    100.13208 
  193200    26858    302.42782    171.04474     -2944752    24211.045     -2920541    251035.53    1.2020356     50.06894     50.06894    100.13788 
  193300    26858    303.03716    1523.5096     -2944817    24259.826   -2920557.2    251073.42    1.2018542    50.071459    50.071459    100.14292 
  193400    26858    301.25675    2385.8997   -2944738.3    24117.295     -2920621    251058.71    1.2019246    50.070481    50.070481    100.14096 
  193500    26858    300.82635    1049.3472   -2944772.6    24082.838   -2920689.7    250816.95    1.2030831    50.054404    50.054404    100.10881 
  193600    26858    301.54495    383.58773   -2944951.4    24140.366     -2920811    250830.14    1.2030199    50.055281    50.055281    100.11056 
  193700    26858    297.97004   -2458.7359   -2944856.8    23854.175   -2921002.7    251149.56    1.2014898     50.07652     50.07652    100.15304 
  193800    26858    297.17961   -2173.1254   -2944886.1    23790.897   -2921095.2    251387.81    1.2003511     50.09235     50.09235     100.1847 
  193900    26858    301.43291   -645.10261   -2944882.3    24131.397   -2920750.9     251445.9    1.2000738    50.096208    50.096208    100.19242 
  194000    26858    301.87824    1645.5577   -2944833.7    24167.048   -2920666.7    251107.42    1.2016915    50.073719    50.073719    100.14744 
  194100    26858     301.0056    1446.5253   -2944746.2    24097.188     -2920649    251045.77    1.2019865    50.069621    50.069621    100.13924 
  194200    26858    298.36487   -556.38137   -2944713.8    23885.784     -2920828    251046.05    1.2019852     50.06964     50.06964    100.13928 
  194300    26858    298.82593    879.49956     -2944965    23922.694   -2921042.3    250783.53    1.2032434    50.052181    50.052181    100.10436 
  194400    26858    297.21015   -1785.8667   -2944924.3    23793.342   -2921130.9    250529.48    1.2044636    50.035274    50.035274    100.07055 
  194500    26858     300.2732    340.01168   -2944891.6    24038.556     -2920853    250249.01    1.2058135    50.016595    50.016595    100.03319 
  194600    26858    299.10846    596.15421   -2944615.4    23945.312   -2920670.1    250205.64    1.2060225    50.013706    50.013706    100.02741 
  194700    26858     302.3263    1303.5308   -2944834.4    24202.918   -2920631.5    250150.44    1.2062886    50.010027    50.010027    100.02005 
  194800    26858    297.55199   -1449.7452   -2944646.9    23820.708   -2920826.2    250356.51    1.2052957    50.023756    50.023756    100.04751 
  194900    26858     298.7196    1066.7983   -2944860.4    23914.182   -2920946.2    250720.92    1.2035439    50.048015    50.048015    100.09603 
  195000    26858    299.65147    1025.3016   -2944921.8    23988.783     -2920933    250806.02    1.2031355    50.053677    50.053677    100.10735 
  195100    26858    302.38422   -138.20007   -2944840.2    24207.554   -2920632.7    250423.19    1.2049748    50.028197    50.028197    100.05639 
  195200    26858    301.35552     1228.831   -2944688.9    24125.202   -2920563.7    250055.65    1.2067459     50.00371     50.00371    100.00742 
  195300    26858    297.74357    1584.0562     -2944628    23836.044   -2920791.9    250128.25    1.2063957    50.008548    50.008548     100.0171 
  195400    26858    299.01951    1816.3425   -2944805.1    23938.191   -2920866.9       250363    1.2052645    50.024189    50.024189    100.04838 
  195500    26858    299.88979    -155.4825   -2944831.5    24007.861   -2920823.6    250333.28    1.2054076    50.022209    50.022209    100.04442 
  195600    26858     300.6296    727.86413   -2944790.3    24067.087   -2920723.2    250283.81    1.2056459    50.018913    50.018913    100.03783 
  195700    26858    301.58273     1201.163   -2944497.3    24143.391   -2920353.9    250067.85    1.2066871    50.004523    50.004523    100.00905 
  195800    26858     299.6394    648.02273   -2944334.7    23987.817   -2920346.9    249913.02    1.2074346    49.994201    49.994201    99.988401 
  195900    26858    299.72202    -1289.227   -2944570.9    23994.431   -2920576.4    250173.75    1.2061763    50.011581    50.011581    100.02316 
  196000    26858    299.76476   -2158.5009   -2944745.4    23997.852   -2920747.5    250432.13    1.2049318    50.028792    50.028792    100.05758 
  196100    26858    298.72295   -580.78499     -2944755     23914.45   -2920840.6    250635.68    1.2039532    50.042343    50.042343    100.08469 
  196200    26858    300.73584     3043.159   -2944826.3    24075.593   -2920750.8    250584.91    1.2041971    50.038964    50.038964    100.07793 
  196300    26858    302.10747   -3197.4903   -2944636.1    24185.399   -2920450.7    250555.56    1.2043382     50.03701     50.03701    100.07402 
  196400    26858    302.51972    725.80346   -2944599.2    24218.402   -2920380.8    250463.91    1.2047789    50.030908    50.030908    100.06182 
  196500    26858    300.19886    126.39974   -2944672.4    24032.605   -2920639.8    250491.11    1.2046481    50.032719    50.032719    100.06544 
  196600    26858    301.21473     852.9648   -2944922.6    24113.931   -2920808.6    250337.24    1.2053885    50.022473    50.022473    100.04495 
  196700    26858    299.19376   -1104.4927   -2944890.1    23952.141   -2920937.9    250322.74    1.2054584    50.021506    50.021506    100.04301 
  196800    26858    298.16167    765.33787     -2944865    23869.516   -2920995.5    250092.22    1.2065695    50.006147    50.006147    100.01229 
  196900    26858    298.08833   -427.89749   -2944665.5    23863.644   -2920801.9    250230.24     1.205904    50.015345    50.015345    100.03069 
  197000    26858    301.45987   -300.55225   -2944777.6    24133.555   -2920644.1    250236.78    1.2058724    50.015781    50.015781    100.03156 
  197100    26858    301.30548   -1593.1431   -2944798.7    24121.195   -2920677.5    250439.79     1.204895    50.029302    50.029302     100.0586 
  197200    26858    299.95679   -1130.5233   -2944898.7    24013.225   -2920885.5    250660.38    1.2038346    50.043987    50.043987    100.08797 
  197300    26858    298.02153    1024.6895   -2944954.4    23858.297   -2921096.1    250942.17    1.2024828    50.062732    50.062732    100.12546 
  197400    26858    298.61301    2791.5276   -2944959.6    23905.648     -2921054    250957.79    1.2024079    50.063771    50.063771    100.12754 
  197500    26858    296.67938    1153.1655     -2944717    23750.851   -2920966.1     250905.9    1.2026566    50.060321    50.060321    100.12064 
  197600    26858    300.40264    1235.5782   -2944783.9    24048.919   -2920734.9    250923.83    1.2025707    50.061513    50.061513    100.12303 
  197700    26858    300.56127    49.520433   -2944677.6    24061.617     -2920616    250901.77    1.2026764    50.060046    50.060046    100.12009 
  197800    26858    298.54999    782.51241   -2944483.2    23900.604   -2920582.6    250650.46    1.2038822    50.043327    50.043327    100.08665 
  197900    26858    298.97045    1127.5867   -2944584.2    23934.263   -2920649.9    250691.92    1.2036832    50.046085    50.046085    100.09217 
  198000    26858    299.29918    190.77375   -2944730.2     23960.58   -2920769.6    250598.97    1.2041296      50.0399      50.0399     100.0798 
  198100    26858    299.22983    1371.4741   -2944805.8    23955.028   -2920850.7    250552.92    1.2043509    50.036834    50.036834    100.07367 
  198200    26858    301.72656     -442.653   -2944877.8    24154.905   -2920722.9    250631.38    1.2039739    50.042056    50.042056    100.08411 
  198300    26858    300.33702    2700.0472   -2944614.5    24043.665   -2920570.8     250657.7    1.2038475    50.043808    50.043808    100.08762 
  198400    26858    300.35175     2987.717   -2944568.7    24044.844   -2920523.9    250727.88    1.2035105    50.048478    50.048478    100.09696 
  198500    26858    299.08491    1388.8695   -2944758.4    23943.427     -2920815    250846.26    1.2029425    50.056354    50.056354    100.11271 
  198600    26858    297.26362   -926.41223   -2944741.1    23797.622   -2920943.5    251058.95    1.2019234    50.070497    50.070497    100.14099 
  198700    26858    300.97241    1740.6262   -2944894.6    24094.531   -2920800.1    251361.74    1.2004756    50.090619    50.090619    100.18124 
  198800    26858    299.12752    262.29383   -2944709.5    23946.838   -2920762.7    251500.59    1.1998128     50.09984     50.09984    100.19968 
  198900    26858    298.38893    2955.4323   -2944577.1    23887.709   -2920689.4    250933.36     1.202525    50.062147    50.062147    100.12429 
  199000    26858    302.01523   -2185.9605   -2944606.7    24178.015   -2920428.7    250268.97    1.2057173    50.017925    50.017925    100.03585 
  199100    26858    301.79744    896.69033   -2944702.5     24160.58   -2920541.9    249976.54    1.2071278    49.998436    49.998436    99.996872 
  199200    26858    299.73622     1217.621   -2944767.8    23995.567   -2920772.3    250122.08    1.2064254    50.008137    50.008137    100.01627 
  199300    26858     298.7934      545.973     -2944727    23920.089   -2920806.9       250266    1.2057316    50.017727    50.017727    100.03545 
  199400    26858    298.85293   -2128.9464   -2944732.4    23924.856   -2920807.5     250243.7    1.2058391    50.016242    50.016242    100.03248 
  199500    26858    301.52276     158.5118   -2944844.4     24138.59   -2920705.8    250122.92    1.2064214    50.008193    50.008193    100.01639 
  199600    26858    299.68634   -301.84268   -2944649.7    23991.574   -2920658.1    250076.05    1.2066475    50.005069    50.005069    100.01014 
  199700    26858    299.30749    2141.0486   -2944636.2    23961.246   -2920674.9     249820.4    1.2078823    49.988024    49.988024    99.976048 
  199800    26858    300.32242    1382.4704   -2944787.6    24042.496   -2920745.1     249819.7    1.2078857    49.987977    49.987977    99.975954 
  199900    26858    300.51259    -691.5074   -2944997.3     24057.72   -2920939.6    249851.25    1.2077332    49.990081    49.990081    99.980162 
  200000    26858    296.98532    201.54578     -2944819    23775.342   -2921043.6    249815.45    1.2079062    49.987694    49.987694    99.975388 
Loop time of 57181.4 on 28 procs for 200000 steps with 26858 atoms

Performance: 0.076 ns/day, 317.675 hours/ns, 3.498 timesteps/s
99.8% CPU use with 28 MPI tasks x no OpenMP threads

MPI task timing breakdown:
Section |  min time  |  avg time  |  max time  |%varavg| %total
---------------------------------------------------------------
Pair    | 40850      | 42243      | 43113      | 253.5 | 73.88
Neigh   | 2867.6     | 2983.1     | 3086       |  97.0 |  5.22
Comm    | 171.12     | 1033.2     | 2434.8     |1625.2 |  1.81
Output  | 1.2347     | 1.2361     | 1.2538     |   0.3 |  0.00
Modify  | 10811      | 10916      | 11018      |  47.8 | 19.09
Other   |            | 5.099      |            |       |  0.01

Nlocal:    959.214 ave 1004 max 892 min
Histogram: 1 2 0 2 5 3 3 4 4 4
Nghost:    11804.3 ave 11982 max 11613 min
Histogram: 3 1 2 2 5 4 6 0 2 3
Neighs:    961816 ave 1.0253e+06 max 887208 min
Histogram: 4 1 1 2 4 4 3 2 2 5

Total # of neighbors = 26930857
Ave neighs/atom = 1002.71
Neighbor list builds = 20000
Dangerous builds not checked
write_restart	restart.npt_equi
unfix npt_equi
#unfix bd
undump npt_dump


Please see the log.cite file for references relevant to this simulation

Total wall time: 15:53:50
